% Model:              Validation_tetrahedron.mph
% Version:            COMSOL 5.4.0.388
% Date:               Oct 7 2019, 13:57
% Dimension:          1
% Nodes:              920
% Expressions:        1
% Description:        Line graph
% cln1x                   Height
-10                       1.7613030837517304E-4
-9.980182460328747        1.7692237474530668E-4
-9.952312407190561        1.7926732775373986E-4
-9.920666474375743        1.806775646614029E-4
-9.715625895497194        1.889720175255578E-4
-9.564792749969538        1.966411708341822E-4
-9.522043198136645        1.9881484020153103E-4
-9.513098569270364        1.9926964716209946E-4
-9.506585145781965        1.996008354235367E-4
-9.434397830789383        2.0341814040882077E-4
-9.347025737809549        2.0789556298500387E-4
-9.154864324336266        2.1736025346524824E-4
-9.100611431024976        2.2101101689877937E-4
-9.055685377553718        2.2368433817397787E-4
-8.96730051284312         2.2890432176997407E-4
-8.905102392894074        2.3277725606576265E-4
-8.882333480679456        2.3426674240470624E-4
-8.79545087950549         2.399504054807391E-4
-8.686226781460556        2.470269990944848E-4
-8.651570805931327        2.492230554858333E-4
-8.468682540163051        2.60812199691088E-4
-8.42184489553744         2.6484908833882155E-4
-8.361157262876109        2.695473797345038E-4
-8.30991764611287         2.7317215614445627E-4
-8.19939229121508         2.8262816792186515E-4
-8.018560975835902        2.9795962008228065E-4
-8.010475009727816        2.9821355732067526E-4
-7.992892100804907        2.9975593706426615E-4
-7.818486433483327        3.15056917777212E-4
-7.798918533045061        3.1677386975065833E-4
-7.690608633586635        3.262780688389397E-4
-7.655035378373294        3.303060256648179E-4
-7.631338782429281        3.3273236332274805E-4
-7.566181215805702        3.3940433840406694E-4
-7.435652853722876        3.52771663718457E-4
-7.373429945911747        3.596711442517759E-4
-7.327644566125437        3.645441278994129E-4
-7.25618885541985         3.7012145787361023E-4
-7.168739114533492        3.817996506711869E-4
-7.15683750560372         3.833896341482008E-4
-7.148939353003538        3.844792335902666E-4
-6.936331374871827        4.1200580522899585E-4
-6.87313133181581         4.2025985694567954E-4
-6.68698507591751         4.459217283748311E-4
-6.660966769921959        4.495086295656158E-4
-6.55857838643378         4.6399640053581214E-4
-6.46057000111985         4.779011605978817E-4
-6.459825474027724        4.7800679817029283E-4
-6.407024579785302        4.8549881405327754E-4
-6.209680042259807        5.234789473633141E-4
-6.204491889651056        5.245073125192646E-4
-6.091844067301271        5.468361051998876E-4
-6.011160777621401        5.628294016093509E-4
-6.00249756255886         5.645466717349697E-4
-5.9855442149530305       5.675742922222418E-4
-5.915622570392048        5.812342604541288E-4
-5.880614965751497        5.881097080446131E-4
-5.775808428437278        6.099477528595E-4
-5.7212716675913615       6.216361898470228E-4
-5.663621669519266        6.33811445867302E-4
-5.505725885635878        6.723542617707405E-4
-5.495492516755153        6.75106105926285E-4
-5.439745879208903        6.900976906583947E-4
-5.437999674843709        6.905673078731518E-4
-5.428862501547132        6.930246436413587E-4
-5.261369173932884        7.416190062452896E-4
-5.259543578959753        7.4212812114975E-4
-5.1962628302870035       7.609035102464202E-4
-5.169584612964471        7.662237310968766E-4
-5.166042767933887        7.673127011370224E-4
-5.00238144488025         8.176355619106907E-4
-4.959311130029246        8.308800387021334E-4
-4.927796216380106        8.405714099334862E-4
-4.835242992964859        8.69034364646121E-4
-4.776664303392995        8.870500228451623E-4
-4.6713408753283385       9.381104377185267E-4
-4.6393698586772505       9.474903335541455E-4
-4.576159594606325        9.683974561431248E-4
-4.421720741203142        0.0010385855551935629
-4.350242196177099        0.0010711004734126218
-4.124596487771507        0.0011857444841015734
-4.100694504979004        0.0011973918345482499
-4.09922217895007         0.0011981093062727397
-4.003131565855384        0.001245191479492801
-3.956846539317292        0.001277273834740269
-3.901944834692306        0.001313073373574117
-3.8312171130845223       0.0013441072051351092
-3.70214571211379         0.0014311127519204246
-3.691094480714404        0.0014385623919678633
-3.6424403452147667       0.0014713603928836107
-3.5285640041546316       0.0015481263483207125
-3.5114338172412882       0.001559674244312195
-3.4262217311313945       0.0016389454435294002
-3.38705016257296         0.001672534750985417
-3.319611848714911        0.0017367736457814971
-3.224984223133438        0.0018269159268138077
-3.203584074823133        0.001847302294700884
-3.179566012670598        0.0018701827979510461
-3.0700574632333044       0.001964272312877758
-3.0263377910725366       0.0020060206782650707
-2.9714543699899045       0.0020584315499237284
-2.953574828495624        0.002102774647312043
-2.932521668720481        0.0021116158378686445
-2.8493238298265418       0.002231720785382117
-2.7318571578598903       0.002401298820369173
-2.715330859164561        0.0024251568222037443
-2.699391251540362        0.002448167895572702
-2.6039774992751483       0.002585911902861869
-2.4879047719065936       0.0027449046474057755
-2.3094778833623977       0.003006505530921207
-2.255827980973849        0.0030852103454371968
-2.2497764794031125       0.0030940891262588696
-2.2497217100615945       0.0030941694850602805
-2.243952385953297        0.0031026344724976404
-2                        0.003597397043675265
-1.9207916144255055       0.003886255864560098
-1.906799164821571        0.003919275370867911
-1.868927085281861        0.004008693800421109
-1.8415832288510108       0.004073295611124107
-1.834685804405959        0.004102347926457107
-1.8335527730042145       0.004105539361673431
-1.81359832964314         0.0041617456380932194
-1.8092222257851063       0.004170169635696955
-1.7998232291165108       0.004196363326280282
-1.7950391152915761       0.004204732638107798
-1.79339318586049         0.0042096786203747825
-1.7919305309000628       0.004214073895959952
-1.7854697415893244       0.004233488882228853
-1.7788106977432658       0.004253500183226208
-1.7723755229948226       0.0042728392515633
-1.7437988941144695       0.004358397535063812
-1.7245242478139886       0.004415478513771861
-1.6850310906561317       0.004537997724554358
-1.6750923522315695       0.004568831035480862
-1.6585632844922336       0.004620110162191368
-1.6556553097674822       0.004629131798322618
-1.6511992700657423       0.004642324102253591
-1.6455738537126852       0.004659679521657816
-1.6271966592862803       0.00471637661130394
-1.619208927183676        0.004755985528177826
-1.5996464582330248       0.004821108965047134
-1.5900782305831527       0.004851096242036724
-1.5867863717209794       0.004863806200019284
-1.5800414542081747       0.004884752290940184
-1.5723614311707745       0.0049118520107724805
-1.5643538793402847       0.004940107484298153
-1.5548518601652468       0.00497363638699862
-1.5388380094060459       0.005030143104264878
-1.5359937714037635       0.00504017934017188
-1.5247496865530366       0.005079855487827577
-1.5118969511391196       0.005130042511729471
-1.491259268760281        0.005212743806475461
-1.4905182750060957       0.005208592603123008
-1.4873954065186368       0.005220469888730022
-1.4854831421573265       0.0052277428872378375
-1.4767989050986134       0.005260772351940302
-1.4750518177602192       0.005267417255382777
-1.4724091994155621       0.005280627462653807
-1.4490484956279719       0.005372987570393649
-1.4434885333159888       0.005395688421573176
-1.4393312137676322       0.005412411972887872
-1.4360436087715112       0.005425636958783711
-1.4297066850568783       0.005451128417421533
-1.4289584403775777       0.005454138374477766
-1.4243658120028702       0.005472613113255284
-1.400097231102226        0.005561813100231712
-1.3807039315747218       0.005644837002378723
-1.3680091688536713       0.005699185643934955
-1.3441984682548522       0.0058011269275823115
-1.321629265771417        0.00589775669611652
-1.3179193298334564       0.00591364107770951
-1.2943133885827809       0.006026851035463817
-1.2901939151158146       0.006045611649169879
-1.2895823410913092       0.0060414501107319074
-1.289202581977321        0.0060433591735966664
-1.2882185696222983       0.006048305861203373
-1.2692477207844064       0.006143453517910852
-1.260656769733636        0.0061865724121527455
-1.2441543681844145       0.006269403023392624
-1.2291208159675353       0.006344864696783336
-1.205525916053796        0.00646330723471846
-1.1728165397026018       0.006632598815918467
-1.170061500063417        0.006646061166558774
-1.1455695000492518       0.0067688616877809435
-1.1411850229372327       0.0067903294185364055
-1.1402501336911135       0.006795620247770349
-1.0976678103361444       0.007036637302750214
-1.0806072228964698       0.00713321657825149
-1.0780823065925773       0.0071475107594199325
-1.0669863638601953       0.007210329852057151
-1.0553067577408297       0.007276520646255658
-1.0205022821357375       0.00747116272624233
-1.0133125485076988       0.00752567831452735
-1.005963406518415        0.007568647286397633
-0.9815460133644985       0.007711413114419875
-0.9755436128685417       0.007762953945540977
-0.9677657926862242       0.007815341686222959
-0.9548572004076341       0.007900301941047579
-0.9342652722964431       0.008038361647850115
-0.9334961639008359       0.008043518502837377
-0.9202560580315674       0.008131535446110338
-0.9152835562420893       0.00816574729830185
-0.9043296906118474       0.008241115013862384
-0.9008353303322173       0.008265158651466882
-0.9003408923890672       0.008268560760684175
-0.8826072254868844       0.008392736185624538
-0.8659775519571671       0.008506070322134612
-0.8632160551121508       0.008524890452715013
-0.8621731168745193       0.008532890420476932
-0.8440830599096356       0.008670655343576684
-0.8315135105038395       0.008766391297458608
-0.8277251646787516       0.008795247175360541
-0.8142784917331198       0.008897677750868764
-0.8125848807230955       0.00891057967394884
-0.8114543666944805       0.008919322691423509
-0.777393678682138        0.00918528530096757
-0.7669969286330395       0.009270825199126448
-0.7669057825890508       0.009271575136715391
-0.7666034866213671       0.009274062391377166
-0.7663838665917204       0.009272462321855975
-0.7646705743646008       0.009287014997071607
-0.7475128984033024       0.009432762713695003
-0.727182463123718        0.009605486103766846
-0.7196129054189164       0.009669802055959178
-0.718489241450321        0.009679349737618309
-0.7009812306376126       0.00982812341168591
-0.7002803517628475       0.009832909057522984
-0.6994505428042945       0.009837930063593308
-0.6977793902170841       0.009872103457546556
-0.6703180352531586       0.010117477043001592
-0.6370050246606151       0.010427612206652177
-0.6311777102105847       0.010474620164833085
-0.6273112093383091       0.010468913509380721
-0.6159301315356807       0.010589593835221737
-0.603575246685379        0.01072061004496756
-0.5938970251498077       0.010823248885596954
-0.5768075238647867       0.011004499906709571
-0.5223368077884275       0.011582327774463146
-0.5136742441100992       0.011678775148325403
-0.5029313606420924       0.011808800567084232
-0.4853727779734953       0.01200331138245303
-0.48367980052413095      0.012022065931511648
-0.4512462834537807       0.012381361161894915
-0.44912008312184604      0.012414895472446225
-0.4287434840411759       0.012662548529801485
-0.3951752450808641       0.013070533496145245
-0.39484416666666894      0.013074557409511418
-0.3944805431158471       0.013078976875558208
-0.3781384866768178       0.01330467972464502
-0.3714990141302916       0.013389114434864324
-0.3434343466086833       0.013754373534880597
-0.3384393698490875       0.013825175990673982
-0.33515016029392086      0.013871892817483461
-0.33243686689703367      0.01390906679554844
-0.32949486632394986      0.013949374330288063
-0.32697317835853923      0.013983923370201466
-0.29452817726662595      0.014428451805280865
-0.28907640322890416      0.01450314774898061
-0.2837476893647608       0.014576157958757722
-0.28203993309244524      0.014616006049012517
-0.2816102585738083       0.014622662997121182
-0.27968927640056057      0.014652425146863837
-0.2415806439610239       0.015242969245853444
-0.2415568365466676       0.015243338241810556
-0.22563781630533342      0.015489719911592132
-0.21123530159435155      0.01571517955594918
-0.20213906935241252      0.015857573953554208
-0.19252436250371474      0.016008084898366727
-0.1751382147052389       0.016338782907672995
-0.17064511102111446      0.01641798964823998
-0.1692356995182216       0.01644283565819248
-0.16364688346647505      0.01654135972684537
-0.15778337602111137      0.016644727686151547
-0.14796351279941433      0.016787780010713304
-0.14240472737706256      0.016891433378952825
-0.1376801567679422       0.016979533231387893
-0.1186008185717764       0.0173353259473189
-0.11772644328651438      0.01735163199400967
-0.09913390353597863      0.017698373232021714
-0.09860908424742833      0.017708161185945342
-0.08899097923567112      0.017887543467340745
-0.05955748387905757      0.0184667356390199
-0.05643146594399617      0.018532048532670705
-0.05437018905216105      0.01857511731522796
-0.011614627004931332     0.019468778564679427
-2.9349156886130043E-5    0.019704398916881697
0.0019955093401620165     0.019749278834693604
0.01121163845390072       0.01995355084056941
0.012563576880403101      0.019983516230311412
0.01542649807626972       0.02004697234524319
0.02247806635042872       0.020202510849810163
0.028800891959280168      0.02035525700397756
0.03210901835444524       0.020435700386330507
0.03798571670384376       0.02057389859058794
0.05509469982421144       0.020992832274823077
0.05595891825864639       0.021013174420518154
0.05622033625284394       0.021019327756288307
0.06813950757572228       0.021299897913120532
0.07518989957659805       0.021465871732297897
0.08186487770306172       0.021634729192690494
0.10508385943672138       0.022193197481283643
0.11078615412690596       0.02228282050040959
0.1316282914425102        0.02288942161031294
0.16272760761459718       0.02379512722487839
0.17030105715777388       0.024015785397490823
0.2247413663100577        0.02560293985172055
0.23031921398487043       0.02578005179928688
0.23129755899454277       0.025902308985873104
0.23484019314945748       0.02594798714744053
0.23542946641111406       0.025964692544135328
0.23551825487882638       0.02601492154630672
0.23701747894788383       0.02615394352962511
0.23900123720316913       0.026226975551410816
0.2400374120216284        0.02626182157073942
0.24134947410097848       0.02614125613836256
0.24622681578994587       0.0260780642145657
0.24880605750349005       0.02614502849068844
0.25115540357815114       0.02623500915183921
0.3120082170020861        0.02845158769439598
0.31331091206399536       0.028499598726858085
0.3223559879189537        0.028832972426118434
0.35062066726197116       0.029874893314085698
0.3694749487415762        0.03057005352702687
0.3703081472835237        0.030600776029067165
0.38397902198254563       0.031104888968212435
0.38492358356130124       0.031176256833744642
0.4048324223188899        0.0319943956188817
0.4259499556769341        0.032862601203559466
0.4483437044744072        0.033783687270439025
0.4559498269630051        0.03409662808286065
0.45989186042296915       0.03425883356244507
0.48817554968567656       0.03555778161269209
0.5025451526180724        0.03626897591235858
0.538596577805583         0.03810326887329564
0.5518844396505269        0.038817133085743034
0.5520384858810434        0.03881620617581049
0.5615575063179978        0.03933173055756026
0.5928597591824242        0.041027337111565386
0.5930706637702786        0.04103876334456889
0.5932264663223936        0.04104720431481377
0.6205698600179232        0.0425287829415044
0.621874189979577         0.0426634710848488
0.6253365057373053        0.042859702483276536
0.6383191858772684        0.04359555712421868
0.6394590730059768        0.04366016883146121
0.6398913060998908        0.04368621130705341
0.6403946255878309        0.043715613086498434
0.6500760368678868        0.04428127502610617
0.6540275383258312        0.04451221364588727
0.6634291652680862        0.04530801723596622
0.6648633839813982        0.04540571913771542
0.665212193025031         0.04542948095253527
0.6656300004585082        0.04515335163316933
0.6672233191251067        0.045270595760191025
0.6869228530173572        0.046720467546323786
0.6961212897521385        0.04739763768486806
0.702423778391875         0.04786167371926388
0.7157390778248995        0.04874055210911345
0.7268796601309083        0.049476013796812136
0.7336318642137822        0.050000342515239424
0.7459527668997356        0.051203105285343095
0.7464068761928803        0.05123521973910216
0.7921439257522316        0.05462108485366209
0.7923804397266281        0.05464040684076506
0.7940546177707546        0.05477718805659011
0.8020203034060883        0.05542821098925246
0.8029555422296415        0.05550467030600781
0.856149278198366         0.05994185117351433
0.8588507755246599        0.06016765425029817
0.8916945844311925        0.06290869895919271
0.9179902145355499        0.06577313600772511
0.944807800197358         0.06870428996875719
0.9900525245454332        0.07373502097464069
0.9908504416188677        0.07382331807123184
1.0187088185254913        0.07690641949638762
1.0189205324441204        0.07692985218364844
1.019150415776842         0.07700732140399243
1.0195872114294584        0.07706385586917887
1.0361215329356384        0.0792054221624248
1.0363974031752647        0.07942634765866845
1.036674801432774         0.079459488533036
1.037494012801588         0.07955736368140068
1.0388550889216734        0.0797199900719707
1.082308439042194         0.08491934777231554
1.1025962442866426        0.08734186965133216
1.1160452232144547        0.0899306168500719
1.116435679220782         0.08998581099594315
1.117007044915816         0.09006658119031578
1.1180856375693526        0.09021906434914737
1.1628756962612563        0.0966988239810838
1.1691651699957362        0.09760887769887983
1.169328787836772         0.09736215351579383
1.175091577773049         0.09840151175418703
1.1752494280760288        0.09843000074693657
1.196473955266299         0.10226969711586122
1.2216505307577243        0.10680101555759798
1.2691774817141077        0.11516332809222134
1.2739524171689725        0.11600555603862894
1.2740034199940808        0.11636568528712765
1.2755120127377586        0.11666701598892641
1.2755604297316658        0.1166766880633348
1.27647384716137          0.11685917094292358
1.3094662440712028        0.12346608868566625
1.322267773038483         0.1260372779326315
1.3236404477479944        0.12668277381058687
1.3237444305279862        0.12670520336057084
1.3266681889640157        0.12733591485863674
1.3535090288670926        0.13312976244272662
1.3552875587257684        0.1335139019879429
1.357269262799365         0.1332418513286704
1.373515068744556         0.13705995784321331
1.3762448716064704        0.1377784328517186
1.3810406863814517        0.13904133984398057
1.409225222516682         0.14647933664412163
1.41461783070252          0.14790537075798885
1.4347399496731512        0.15331183026046996
1.4364524544703556        0.15375806037519035
1.4421727811201102        0.15524902589692594
1.4514837869677848        0.15767719330823182
1.4581320749541362        0.15886735286503637
1.4711453938395778        0.16015744578328314
1.5417151823474935        0.1816002151483113
1.550215655417297         0.18419770630010945
1.582842017244987         0.19420325716031117
1.618417593870694         0.20517072222460347
1.6305243956204745        0.20891513977177778
1.6422992358804596        0.21256225244133642
1.6434830184870624        0.2143534045941169
1.6460706915443861        0.21513705004287842
1.6531611256424055        0.2172862002659336
1.6548060062136898        0.21811342989624205
1.6771476864743773        0.22580754375180917
1.6821463478541627        0.22753280837395987
1.6897145678350984        0.23014745450626653
1.6924476102412722        0.23109238398190246
1.7201437226130558        0.24068866134474037
1.7267699951823907        0.243054081669275
1.7452508546266259        0.25032632381546593
1.7611354742492598        0.25644843484541835
1.7698985723105594        0.2598319452560946
1.773461411732029         0.2612087806359228
1.7821739342600278        0.2645784884895889
1.8039919587591147        0.273033627192501
1.8045923472109957        0.27466930926932087
1.805866117858903         0.2751968234232491
1.8108346514642175        0.27725500522566926
1.8111045255499914        0.2773668228486256
1.8139396108318984        0.27854163920607394
1.820208213683089         0.2796079771549687
1.8232761473230714        0.2808670388543596
1.8587633307626348        0.2945248297624095
1.8706640397251282        0.2996875110246181
1.8844390307483538        0.30567351991609026
1.9010263601270252        0.31289537327774475
1.9490225112583028        0.3338679515575066
1.9546206893594602        0.3362985860843438
1.9585903359019237        0.33796086154626004
1.9642857142857157        0.5650420713565257
1.966293045748556         0.5645300060565039
1.9673698719302173        0.5642556681356727
1.9933932755193928        0.5577027885045189
2.0074863194723473        0.5542169225109034
2.014195808066263         0.5531901396026373
2.0199877712495113        0.5518218950431727
2.0245597930747894        0.5507457770964819
2.026335693711445         0.5485338493421946
2.0398420722596526        0.544690842494644
2.040083458862398         0.5446225929977295
2.0401430518524872        0.5446057460695933
2.0402449856316096        0.5446470844308745
2.056086686463385         0.5401278314252226
2.0635312632593354        0.5380760248386272
2.0657455012745523        0.5374686604355823
2.0799702498216646        0.5335989570880498
2.0824834005931194        0.5329211162397912
2.1004450937299666        0.5281284690091396
2.1011235524218534        0.5279492436584887
2.103796335770756         0.5271807016435047
2.1157312631122256        0.5236693214035747
2.1387261690864143        0.517031781885572
2.1560571838032274        0.5121436132288724
2.159673921555754         0.5126883238407616
2.1689481138214983        0.5102602948288535
2.177510380373846         0.5080430965415055
2.1899022310346883        0.5039291728662835
2.2143597481240214        0.4988194945745693
2.222710201523679         0.49712174040992285
2.223811319472297         0.497000606505408
2.2265957003969916        0.49608834327351686
2.251309151255141         0.490918115734519
2.262337680269333         0.4885904307230984
2.276472289225861         0.48567928730335164
2.2809075534965864        0.4847827162663159
2.3075768155936753        0.4794252128612859
2.314852308543564         0.4780366744930652
2.3159711929181004        0.4778250976507262
2.316394125181479         0.4777917481117385
2.3312524490989635        0.47548574166321933
2.3317985870471922        0.4754026352276149
2.346521316256243         0.4732068841070669
2.35575254045942          0.4716905971573468
2.3838836219729953        0.46748331368745705
2.4054665946675797        0.4645009195006684
2.4084652331642147        0.4641036987909793
2.4124045965281695        0.46417475681413994
2.4520412059692487        0.45906111361218804
2.453409064248417         0.4588042953668869
2.4807830493871386        0.4570871626863403
2.486706348918453         0.4567076298038957
2.50021996812338          0.4559887200900322
2.545168881788541         0.453887379878219
2.5849523951590427        0.45283412130879974
2.624910977625298         0.4525443521613369
2.663835606747922         0.4530036965499485
2.6737025510707575        0.45310524427807547
2.6822193511200747        0.4534008398019281
2.689121740930947         0.4536054224566413
2.7413456475666607        0.45700571176945626
2.7418741072418413        0.45703478697125
2.7550462850451662        0.45779769870737297
2.793291086702851         0.4606268199955158
2.7938147227708594        0.46066993093801406
2.8022362203529707        0.4613790311712675
2.8065795143124035        0.46175631126635275
2.813329793396221         0.4623582438629079
2.8274512453724623        0.4636731101974089
2.8377486666903025        0.46469440570161535
2.8511244698066283        0.4666835355414344
2.8902907698995417        0.4711194495898669
2.903854052507281         0.471157810677575
2.9116410587385815        0.4721678023435123
2.923931318451169         0.47347880317851015
2.9443942096507847        0.4771209682632385
2.9453708678973296        0.4772285654336549
2.958067780245589         0.4786601226000172
2.972700914543075         0.48038493115878567
2.9878295870739904        0.48225164912202945
3.010875366984307         0.4852187098516863
3.011875967277743         0.4854927934566223
3.0217840747618565        0.48678147453541737
3.0285097604822804        0.487680307348774
3.034696848955928         0.4885242417711419
3.048034476734107         0.49008411415331454
3.0531444738997617        0.49083776902432397
3.062499999999999         0.49224504310069445
3.0725593619665323        0.3157687769996417
3.0846671833540915        0.31191634816468733
3.088730161086912         0.3106314341212467
3.0970802856954993        0.3080033790226872
3.0983530763724967        0.30751081369698485
3.1438347569060308        0.29374731753984207
3.1574684291330892        0.28972706081265176
3.1698649148313955        0.2861170031420765
3.1795263470995847        0.2833345092772961
3.18437632259908          0.28187226754344236
3.197359917531843         0.2771186165229872
3.2345985905107852        0.2638299732258493
3.2517048405120477        0.25830591919231227
3.2606996178266776        0.25543003629784194
3.2732247589539565        0.25098077903176863
3.286126315882335         0.24669418850317948
3.3303112341821115        0.23225802913502538
3.341872888553766         0.22854918139247196
3.3808975287002396        0.2162701714255416
3.4115886810728253        0.20901123067618857
3.4153270482176126        0.20799161485269038
3.4165605452852716        0.20973603116354875
3.4175061981642756        0.20676044567782062
3.4242041208060927        0.20450762651124788
3.4264499564849022        0.2039866920605148
3.427854035593263         0.19983865401511458
3.431412017733688         0.19899450681026795
3.436601128793619         0.19894357404149723
3.4398226854715115        0.19951378799402592
3.4454261929084318        0.1977923896844543
3.450834344119917         0.19627645549847142
3.519094503089013         0.1774353134322539
3.5295419597446767        0.17460580750528057
3.579484985100663         0.16132146096993263
3.5864853672921773        0.1594949842307526
3.617201061270947         0.15159989187670658
3.6173364448180423        0.15193746060644242
3.6196723574412637        0.15150515886708377
3.63145755501008          0.14841480687643033
3.6321961130017417        0.14822124926820515
3.669357593030238         0.13850037971973464
3.670698678626731         0.13815029029248213
3.6989091045152946        0.1314582091855955
3.703874734700374         0.1302410166216185
3.7127728913730955        0.12950229698536841
3.716829225866231         0.12869840363462817
3.770817358229273         0.11810878885980067
3.7755533563990067        0.1171906124389443
3.808279221954828         0.11167708185382583
3.813414177634815         0.11072941063101517
3.8436614363963546        0.10571197451824774
3.8505512751011253        0.10457299776557089
3.8550574446313424        0.10382889330848774
3.875694537219264         0.10042982883146717
3.88384311141942          0.09909187557874279
3.8858702198804274        0.09939981788884279
3.8980529426791914        0.09742857910445693
3.901413479174431         0.09711758213099386
3.9020830224098435        0.09702301402650393
3.9081914945573377        0.09585517568432624
3.90930405284081          0.09503264856213195
3.9391082209666433        0.0906763102012859
3.9430984378045846        0.09009345428003286
3.98252896655373          0.08433916374835065
3.9960926044011345        0.08306924137601478
4.013522085648509         0.08101441993108296
4.032001047874772         0.07884667344773058
4.054083422866128         0.07633568484700802
4.066966048210297         0.07495319012137078
4.08345386653072          0.0733741000814491
4.123045229536688         0.06928639861520221
4.134315283947348         0.06812426699465553
4.151733593119488         0.06608028126793235
4.176037569779226         0.06337940458145144
4.1777940635065764        0.06318439364467415
4.191552710744375         0.06165780132981859
4.194004333300676         0.06138596038743094
4.196830924435            0.06185410351063713
4.208452928656827         0.06070984738974952
4.214547145028565         0.06011010151633674
4.224351750361608         0.05922482779048796
4.239198699709533         0.057978150085110806
4.255188985791978         0.05663558966754737
4.260406049062837         0.05613550063446551
4.263568409307528         0.055914510579129335
4.299664184861635         0.05331094330268099
4.301868549449006         0.053166665711747205
4.311907197033527         0.05251032562639739
4.321042618391056         0.05189524488180692
4.353534775579067         0.04970463829271384
4.375010867191003         0.04826083680682141
4.375651497831573         0.04822129090614279
4.383674999815227         0.0477261880457139
4.409453135843793         0.04613793373879212
4.429325067531176         0.04491628712673956
4.430845516250168         0.04477081491702687