% Model:              Validation_tetrahedron.mph
% Version:            COMSOL 5.4.0.388
% Date:               Oct 7 2019, 13:57
% Dimension:          1
% Nodes:              862
% Expressions:        1
% Description:        Line graph
% cln1x                   Height
-10                       2.7485360293142953E-4
-9.990472956058518        2.7545246689141337E-4
-9.985083063359657        2.763499628872387E-4
-9.982223103705255        2.761314321724011E-4
-9.979627287706975        2.763788751438103E-4
-9.961400107528199        2.775601276107575E-4
-9.924721594181273        2.7993721961793984E-4
-9.742671172226832        2.9156511676553597E-4
-9.667240549938974        2.9751318935391526E-4
-9.616796219065135        3.0149102001926747E-4
-9.54844863562181         3.068806865134386E-4
-9.487472616427318        3.116891108589186E-4
-9.441950901627575        3.1545812583783637E-4
-9.329300924075342        3.242279918926653E-4
-9.29564111946081         3.251310398755058E-4
-9.261718464931441        3.2836103036464086E-4
-9.254881511033114        3.291660185975448E-4
-9.0052545669525          3.5225427169686464E-4
-8.634969084893658        3.8650496982640275E-4
-8.627732019871129        3.871744109221477E-4
-8.606671593774543        3.8912254216859154E-4
-8.564341074358948        3.9303822241054117E-4
-8.562221925579314        3.954141715635271E-4
-8.554663164933764        3.952668814157634E-4
-8.542322257518904        3.966994138696446E-4
-8.49057477734299         4.0270629708882144E-4
-8.363609283947799        4.1744477275491035E-4
-8.252863295523685        4.3030069706096743E-4
-8.240178422966812        4.317732316273111E-4
-8.18887045448123         4.3802018903093507E-4
-7.813488348467501        4.8680503622598384E-4
-7.807321390270167        4.864661713859434E-4
-7.779877727971379        4.908263076006017E-4
-7.757057818999842        4.944520217386286E-4
-7.735658428566614        4.980694295580635E-4
-7.7160883348863045       5.009943467908181E-4
-7.67129204906357         5.076900439839245E-4
-7.433540005853795        5.432377299178936E-4
-7.285352558592907        5.700463859391704E-4
-7.186726405142355        5.873136438350213E-4
-7.186692667995495        5.873195505395095E-4
-7.116110840752173        5.996771355830917E-4
-7.115023217192495        5.998675602091146E-4
-7.014039903399769        6.17548252341854E-4
-7.008106058965175        6.183690288771153E-4
-6.991023141322688        6.214618952208659E-4
-6.826598940376384        6.575272850793512E-4
-6.825736463364073        6.57716485124014E-4
-6.754283719778197        6.733916574394263E-4
-6.746148009254485        6.751765415562561E-4
-6.706296373332188        6.839197924058382E-4
-6.691743794529231        6.875692261328115E-4
-6.645918826067478        6.977777096194374E-4
-6.5123592918517215       7.266092068495641E-4
-6.447282910969677        7.40528574584177E-4
-6.4434295151767          7.497051788041302E-4
-6.432881746110326        7.519958971473621E-4
-6.333563878035269        7.751618238836198E-4
-6.294758014025298        7.849163151015856E-4
-6.150848615866824        8.255426999240576E-4
-6.136096612870162        8.297079282466275E-4
-6.073449315811212        8.473976598207718E-4
-6.0442029917803          8.537235530377626E-4
-6.00295466482326         8.648582666097366E-4
-5.990652057495055        8.681792811826686E-4
-5.964628442739523        8.752042091163353E-4
-5.85969203646918         9.035313348700292E-4
-5.830531584515482        9.237685126189163E-4
-5.804979075444731        9.323944641253718E-4
-5.644077769745888        9.845129941754899E-4
-5.543108026967481        0.001022706635617929
-5.484312252788944        0.00104585624085744
-5.404621483626369        0.0010777225921991536
-5.344360596848866        0.0011018210986979164
-5.310778514625671        0.001114155215907287
-5.19792830986327         0.0011588011160613347
-5.138166968578945        0.001191469521685999
-5.096205666857131        0.001212891650870024
-5.051790736902326        0.0012355666495505444
-5.008326175416194        0.0012577566868259972
-4.916008664815563        0.001304888396246565
-4.914561673832623        0.0013039593324762665
-4.9132969519423355       0.0013046051526025293
-4.854473651112537        0.0013346436368143174
-4.765343445750933        0.0013801614760766562
-4.702034717231741        0.001417347118550499
-4.604719089653657        0.001482124038988831
-4.440771598346091        0.001591301169335003
-4.385753056289459        0.0016279511687971844
-4.3311644048162234       0.0016643199510816354
-4.311925493128104        0.001677138716331899
-4.149811316105825        0.0018171742569287708
-4.128433705691663        0.0018328901613332723
-4.096916590025405        0.0018560652794120556
-4.050739713801015        0.0019106194039654148
-4.022110384177578        0.0019372271543193875
-4.012090730556853        0.001908579906399149
-3.9243707983742593       0.001995515955428937
-3.8599703957595373       0.0020593615499597323
-3.801333818487754        0.002126473828637057
-3.739592340476147        0.0021865405520095247
-3.705633168845821        0.002219583034569512
-3.689018407775623        0.002235750396610182
-3.683630826892443        0.0022409930528331005
-3.498097259420189        0.0024215771866008496
-3.3497848904512946       0.0026593437413384166
-3.3181119814514624       0.00268810569122655
-3.2937088634710623       0.0027215440668961416
-3.2208955510485224       0.0028290199280002416
-3.1070774202854707       0.002997066817476156
-2.93160397172859         0.003256236628870762
-2.8962498609505722       0.0033084652837455206
-2.885319331712143        0.0033752472789591206
-2.881486632317518        0.0033652879678972153
-2.8767741762622183       0.003375607535389781
-2.8695931595400808       0.0033913332882485035
-2.8625283472693033       0.0034068050416292696
-2.6946149124994214       0.0037746556831393277
-2.690743316158759        0.003783139779981292
-2.5000000000000004       0.004227613366552056
-2.3890811195157067       0.004516254748461206
-2.3864885545181016       0.0045232219239129305
-2.3644755189784856       0.004582383426509226
-2.3549148700135554       0.00460808070221823
-2.309728509614133        0.004729552132214521
-2.278162239031416        0.004814427083724857
-2.256013331074987        0.004894988218894862
-2.255009905908681        0.004895616028489086
-2.2306685130302473       0.00497491837579125
-2.2227027987892702       0.0050008710568494215
-2.2098297400271063       0.0050428131243739314
-2.1950166638437345       0.005088809340688698
-2.18427145280023         0.0051239576242753555
-2.1626342467414457       0.005194736903783189
-2.1408913507069975       0.005265865261102628
-2.1340199966124813       0.005287922984410134
-2.119457019228266        0.005340734156855854
-2.1147800245952246       0.005355615430461721
-2.111783918304977        0.005365826766496226
-2.1086273319191617       0.005376585146353738
-2.104654828524275        0.0053901244989063915
-2.064744610040661        0.005526157465963263
-2.056324478062831        0.0055548591350740514
-2.041916789222384        0.005612171207101705
-2.0289889751580636       0.005659964196785868
-2.027630267941543        0.005664987328451427
-2.0120266621499745       0.005722675238088458
-2.009508539307186        0.005730977830407131
-1.9798614318177563       0.005850336698844087
-1.9674234651019984       0.005900417956603178
-1.965257151736985        0.005903944587460492
-1.9415279104940364       0.006000490847425521
-1.9367221642519645       0.006020044874906357
-1.915372018080024        0.006106920374181903
-1.9015411329607783       0.006163202958588387
-1.8644843674389975       0.006321877521797888
-1.8616190331864715       0.006333842991620324
-1.8325351101747653       0.006455302066726955
-1.8306393264735945       0.006467615902267166
-1.808852860581725        0.006558214895700421
-1.7852336989328261       0.006684656585721729
-1.7846106247284086       0.006687598802232364
-1.7799807603809796       0.006713024126639132
-1.777883686559548        0.00671782527821992
-1.7723139855568275       0.006740205437200489
-1.7288684871349815       0.006946409879052435
-1.72207937524513         0.00697993101819776
-1.7187868669128648       0.006991503745063264
-1.7031145291134298       0.007068425344903225
-1.6891426378128767       0.007137004476843989
-1.6882312116547649       0.0071414782011327785
-1.669961046094919        0.0072311599343379065
-1.6631512078712056       0.00726458836661633
-1.6624945973410679       0.007267811603596523
-1.6506876041382554       0.007333446820019598
-1.6379413044072402       0.0074032719334451965
-1.6150333259090424       0.0075287693503723815
-1.6026727828654312       0.007596487509532274
-1.6008313416530986       0.007607031746188577
-1.5873269444076534       0.0076804810724868545
-1.5804707247010583       0.007727923247584987
-1.5550376190385489       0.007864590507910288
-1.5460416427820576       0.007913233868953014
-1.542850968389791        0.007931762583860092
-1.5194057152430105       0.008077739085025204
-1.5138754615967152       0.00811217517370408
-1.5136120240641515       0.008113815591152847
-1.51314590120046         0.008116718130621892
-1.511204736392953        0.008128805823676628
-1.5087807175483139       0.00814390047003445
-1.4991502236161764       0.008203872911963846
-1.498382739421075        0.00820817560407103
-1.497343362678027        0.00820873608705272
-1.451528818506899        0.008499167121334023
-1.4406402158653613       0.008567089776050762
-1.4296667101095206       0.008635545873773801
-1.4255392874604738       0.008661294977454952
-1.4166879746547316       0.008716516037625997
-1.4065699650238823       0.008783868966642993
-1.3836519217707846       0.008941822951573138
-1.3771489037510918       0.008986645362956819
-1.3682259499500198       0.009048149276669634
-1.3444956202932037       0.00922244981264701
-1.3150410920462008       0.00943240004268065
-1.3054933262055641       0.009506480942512587
-1.305325818598           0.00950774519057711
-1.305069533935523        0.009509679477616587
-1.2695844073452989       0.009777528006695412
-1.2548347374472097       0.009861375422444958
-1.2309697106666135       0.010068032104900825
-1.2104566714626532       0.010240700477548418
-1.2045838467979255       0.010290136465826587
-1.1833661579137242       0.010468747174301662
-1.132904712579606        0.01089356429276807
-1.1199978513530233       0.010996663451816565
-1.1194478450567686       0.011001087962624213
-1.11511743451206         0.011060674251198634
-1.1101484684109193       0.011107950466796301
-1.1089736033763629       0.011119128607433401
-1.1056245744975859       0.011150992884986331
-1.1046457615796061       0.011160305856995147
-1.074440538088064        0.011447711045019734
-1.0744027901203026       0.011448070238746893
-1.0743878825454587       0.011448212092948912
-1.0742847894254055       0.011459741533094047
-1.07422937616529         0.011460256473285992
-1.0602360830737327       0.011590300186175316
-1.0539188320344053       0.011649013288162204
-1.0532884443924413       0.01165303025343924
-1.051086598179685        0.011675496956585008
-1.0337713003543971       0.011852188050979776
-1.006052078753461        0.012135090921158647
-1.0009523142872965       0.012187145200997684
-0.9966201687691517       0.012231365663798755
-0.9786199877087256       0.012373182791539166
-0.9378811505063015       0.012852016627491943
-0.9376500514239225       0.012854733443752257
-0.9367747164055924       0.012865023993566208
-0.9355843738105634       0.012875780975740892
-0.9060104072652971       0.013220880163554315
-0.9030934824242713       0.013254919047895922
-0.8998255674980573       0.013293054045047088
-0.87790681296533         0.013537153047245782
-0.849934408323584        0.013856501556873495
-0.8439439239718656       0.013926756924916583
-0.838709718318583        0.01404180239477787
-0.8259573911009214       0.014189366864836982
-0.7823177273110655       0.014756367278694851
-0.7738738175037306       0.014872410725282031
-0.7674715901570045       0.01496040215359376
-0.7575540585575737       0.015087111265032916
-0.7492974522456226       0.01520030115339596
-0.7384808045825793       0.015348596312021383
-0.7312075617097218       0.015448317749724019
-0.7076919516686359       0.01580349572850564
-0.7019443202156808       0.01589240725638377
-0.6884076673805932       0.01612491420327117
-0.6533829298302649       0.016665691128962185
-0.616183769444799        0.017237470280657356
-0.6095534587214715       0.01726819256468266
-0.5373352090868408       0.018626489471761706
-0.4970087837432118       0.01934199882853162
-0.4836816517474478       0.0195798161336168
-0.44382031641091757      0.02029139303046048
-0.4102921685678744       0.021089721118298706
-0.39011133712270407      0.021556432144996068
-0.375142890096674        0.021902673296281143
-0.36022175795921996      0.022247879516022324
-0.33627319037199227      0.022802056442007307
-0.314387373811579        0.023308619643152673
-0.3013006651105137       0.02361157220293097
-0.2884753319037454       0.023954247866124597
-0.23068533460293317      0.025533862789506742
-0.2289584004407228       0.02560692070527576
-0.22872606433306866      0.025413919876739497
-0.19305615131013987      0.02657853680131794
-0.18920639855426558      0.02670430035530755
-0.14790493305909888      0.02805430923883826
-0.13666609570562827      0.028421899134450434
-0.12117893829414328      0.028928587683955134
-0.11700173279518644      0.029066504870607836
-0.052033324450414746     0.03115902037594461
-0.04976546425936413      0.03122943413812634
-0.04792837609310219      0.03134330538630577
-0.04660953077696031      0.0313855824372557
-0.02646438546735474      0.03222465414969727
-0.01498389479438345      0.032621757458413156
-0.009319093180780062     0.033059645814324
0.0010252050120698143     0.03316314234009282
0.01138080349102566       0.033626083633318975
0.023915491393163183      0.03418669547249218
0.02917607111174014       0.034422054359966266
0.03730970063770833       0.0347860441655669
0.04006138357321731       0.03490920965265447
0.05420870735737004       0.03554263276870428
0.07963965203015456       0.0367929076268832
0.08168387632841954       0.03688401629889115
0.08565655516030013       0.03694467132049316
0.1246752451142008        0.03883684430586901
0.13801461027738604       0.03948463929213784
0.14018352464512773       0.03959000867928013
0.14634979306033813       0.03988963724137924
0.1750551219747205        0.04139895998873763
0.1771960820931824        0.0412503841315842
0.17884747851924487       0.041356325800827286
0.20380983252710652       0.04296930533013361
0.20717125915433596       0.0432383835737597
0.223426265893103         0.04414558373840145
0.22434866372003096       0.04419708333670393
0.22542869779509367       0.04425738681181114
0.2387214207328352        0.04499981558253142
0.26101144241175694       0.046251081788869434
0.2665431124245572        0.04658804537691453
0.2699559016260267        0.04678133224693276
0.27924820798209465       0.047307766106725976
0.32004677504224327       0.050175103122654156
0.3261590926088136        0.05059644743562556
0.3390983236391758        0.05148871451976878
0.34842015388401393       0.0521317901374671
0.3678958307033486        0.05378516154865008
0.37618310455284387       0.0544062442512858
0.386081816911954         0.055098929421230014
0.4040912417923721        0.056512455961844794
0.4182121534286214        0.05758701956153322
0.4260261118503195        0.05833037001941102
0.4694572010873621        0.062164423191509506
0.47928508939444114       0.06303394448213406
0.4816083182921034        0.06323958765348917
0.48767878555681143       0.06377709024083411
0.48889901073237496       0.06388516270755723
0.5208508033442385        0.06678627836569981
0.545004483155587         0.06985232452683043
0.5511145961371273        0.07054396377204325
0.5596831419607362        0.07116761600086842
0.5644564960686758        0.07170742420640423
0.5903329899074521        0.07477343005139704
0.6319206550445315        0.07971299398370121
0.6385133201867781        0.0805667702855788
0.6426600522450432        0.0810441757485231
0.6455289173045475        0.08137471903378744
0.6717968128825529        0.08441053974360943
0.6815625798134023        0.08613967527014124
0.6886046624279736        0.08713566299898967
0.6964693634923887        0.08824935607226335
0.7028868802870285        0.08915914516790631
0.7250452410388277        0.09230715521863239
0.7351929777460349        0.09368895461194253
0.7438549441724335        0.09529117100338501
0.7549320399303737        0.09734143328515563
0.7806597626272485        0.10139034138189532
0.8075694392861905        0.1054610131524546
0.8413172645053848        0.11068046735651585
0.8438158426768378        0.11104067168486671
0.8471445956849788        0.11152119726001525
0.8629428736692173        0.11538070527970244
0.8946349274326835        0.12115334670191394
0.8995143079136732        0.12004645810517697
0.9295941071134521        0.12769521404554118
0.9432643469452291        0.13023247430280538
0.9483902527220867        0.13135034982725827
0.9566814819387908        0.13317095700772627
0.9674179269131427        0.13522012149573048
0.9879778658035079        0.1396279216930583
1.0016762849798884        0.1425938763711905
1.0223569799303416        0.14711225456819194
1.0386749693844166        0.15057886593665246
1.0411519760440202        0.1512052004739778
1.0599855504517706        0.15598981145862675
1.0603826850134581        0.1560911127760627
1.0604213762778354        0.15610098304444944
1.0604925301181254        0.1569232933233523
1.113172823305547         0.16503253175281407
1.1170531140708455        0.16566167265821813
1.1484561924349137        0.17090073079685783
1.191309937300316         0.17844216605967644
1.2041908672927804        0.18318343357686276
1.212363948477396         0.18106951249829856
1.2183458380735495        0.18180690681637796
1.2364910085919902        0.18774718622630496
1.2569884984840858        0.19054844668398851
1.2843353631602668        0.1941058210269438
1.2875753983169176        0.19525830298264943
1.3076059831159768        0.19773170114234878
1.3214955440406868        0.19993857734739479
1.329689501616686         0.20088421358679867
1.3416782420291398        0.2022931418928878
1.3497576065261043        0.20325934527261227
1.4222206888212963        0.21123439320215698
1.4227918386048817        0.21200850709760402
1.423321230903836         0.21203798512340274
1.4372736638223529        0.2136811278998709
1.4646686643017472        0.2153502300834487
1.4663409472266127        0.21548461997490526
1.5170843538875205        0.2200482562415963
1.5229458336019022        0.22063455903670348
1.5381346821631343        0.22204588699077804
1.5442915777938777        0.22273470305381443
1.5742100545904076        0.2254375479939871
1.5978966234277079        0.22711134805916797
1.610043234449419         0.22801450642050516
1.611600700024523         0.22750719065681108
1.614445922039069         0.22765123730734396
1.6146123513775663        0.2276597279863109
1.6147165632098197        0.22766504817410843
1.6165985700469871        0.2282861484066495
1.6166914019406848        0.228294140377921
1.6167412784092132        0.22829843548447842
1.6173519383401           0.22835109048688346
1.6236709783825118        0.2292982142866036
1.6455799146772243        0.2309513769554054
1.685066717885908         0.2344641745540852
1.6992758596200517        0.23507702315716825
1.7052991007069238        0.2354515285274186
1.7373858227051215        0.237591262126814
1.7561642683509575        0.23895472320612116
1.7716182389051145        0.24013717330390164
1.798326277978024         0.24214939919590428
1.8149826975544416        0.24337591608085885
1.833220875635675         0.24482342701399737
1.8402630169173761        0.24541118635109038
1.8502198819064224        0.24626931690961615
1.8706563523289876        0.24806748614855534
1.8805581495270258        0.2488452158597786
1.88219975585673          0.248824801828082
1.894244643664056         0.24977247950723744
1.8996795289178277        0.25024954592903026
1.904817998725035         0.2507087432381483
1.9205505658267636        0.2519169901119806
1.9369823391407621        0.2532414467244581
1.9627397807040463        0.25549784011606413
1.9722006689667992        0.2563975946902101
1.976415121814391         0.25676857487774446
1.9920810456825766        0.2585605403157584
2.0221110493124357        0.26148166931387107
2.0249656143939774        0.2617764003613845
2.0526818489950482        0.2647884049875638
2.073098404912514         0.2670736419174412
2.07728450544478          0.2674908934693768
2.117783005616145         0.27127582488180896
2.118702202431251         0.2713812298806416
2.118913574383928         0.27140550446823547
2.1197591097471076        0.27150274430503174
2.1225321919972           0.27182318442273784
2.133820189492849         0.27336322478472885
2.1430745770791972        0.2745389189167081
2.1443450399276736        0.2747029411899219
2.175256177119888         0.2788848457479775
2.202528625019441         0.2824926652750918
2.219964700543182         0.2852039687939794
2.2315529577402207        0.28706558849208563
2.23336707559016          0.2872829147497006
2.2511355694755277        0.2901751101515549
2.2760927582356483        0.29410182043624455
2.276531515094531         0.2940560525729258
2.280110934587726         0.2946120797054546
2.3053187535576716        0.2986932289924332
2.3083266495673973        0.2991058206474565
2.3103311855401665        0.2994379496896828
2.3134665586810863        0.2999610330824288
2.333333333333334         0.3033757738611157
2.3675535085263433        0.428281190012235
2.375968589151121         0.4316744992278596
2.3905930882558564        0.43783728540429034
2.391685516888895         0.43838484761746743
2.393786703527352         0.4392209563477537
2.411398501573336         0.4462335795327079
2.4195043176366213        0.44946376825776774
2.4509198893821793        0.4619978724017178
2.4640925299448613        0.4677615312753784
2.4661610178803537        0.46869285793801435
2.466974873794221         0.46905932450897864
2.485595392021988         0.47744867229595533
2.4965346392195005        0.4823814605304583
2.5191727678689357        0.49220122104394
2.5237754780700783        0.494422030725064
2.5385309781481187        0.5015725727368927
2.5559304185831486        0.5100080811061982
2.5574198111959525        0.5107303413740254
2.559545042810683         0.5113495142764963
2.5713994328159733        0.5171504107942565
2.5903295590246334        0.5264177391478287
2.5948468165869523        0.5314143882552604
2.6195868029096974        0.5426218778660781
2.6224241186525945        0.544230592631762
2.6243778052612488        0.5426218762808126
2.648148101622482         0.5574709149067613
2.6701724061946646        0.5702515828456712
2.6712841298233343        0.5708970168722511
2.680357190869447         0.5761656210897428
2.6895686360039477        0.5815164632826327
2.7132851108394274        0.5961523554754506
2.7208101086839225        0.600226571397986
2.746664240745204         0.6137091164232208
2.7501172565841348        0.6159974912254129
2.7626711807575           0.626718765506322
2.763450837591249         0.6261990678500262
2.7712084610335097        0.6316308198353674
2.7972005681147727        0.6500941657939142
2.8398279335372543        0.6800057195800748
2.845458849989981         0.683961248112475
2.8529764511758557        0.6892435922359386
2.8556222567374356        0.6939779637160262
2.8605918041133407        0.6974769637959634
2.8809813085291687        0.7118527690864898
2.8981685861991693        0.7239945148387865
2.914043945360101         0.735227743206104
2.9149575823039076        0.7358567790080287
2.941899414471907         0.7546302330991232
2.942502064760454         0.7573975771546457
2.980541787690099         0.7891184769117151
2.983104520143787         0.7960486821288246
3.001227722783913         0.8091664250945266
3.014385661672098         0.8193237659590892
3.0287454222497208        0.8330629267968017
3.0360667327948847        0.837662909134272
3.0384776464464087        0.8391803384559448
3.049271033718579         0.8459895558539534
3.0526315789473673        0.45162550293928
3.064685885293053         0.443814320516787
3.0692632902310137        0.43985104364668065
3.0763990332725024        0.43492006112079273
3.091773523477707         0.4243443816118643
3.107464234913541         0.4136238120702045
3.1101260002550113        0.4118128660951827
3.120436538842257         0.42547530555634594
3.1486267410258177        0.3823554697446972
3.1622828300880443        0.3615815338047217
3.1930890980685778        0.3400979326505978
3.1957782468038687        0.33813188257153326
3.217108369901831         0.3251902990852293
3.225141876007079         0.3195131129027027
3.2259783921442504        0.31892225542437136
3.265674056895676         0.29960037685048324
3.280562455070059         0.29125243598446887
3.2805707383934126        0.2912478083908069
3.280604545976768         0.28474597246518846
3.2914516295944516        0.27871301615201577
3.29801056792914          0.27558729276362515
3.3097659945155034        0.2692111412115275
3.324941263909293         0.26111198019451587
3.332594124915733         0.25702985650675575
3.352901215501126         0.2462058839865008
3.3641452034296684        0.24021815154591988
3.3660467830932372        0.2414500922765879
3.36665055694345          0.24118807324290867
3.3739149924186904        0.23803606839940675
3.3782466951732975        0.23615704225072895
3.387861905093903         0.2319874429240343
3.3944290833438298        0.2291407067964464
3.3990841872214403        0.2255503299499629
3.418234267431119         0.21787021373698953
3.4207595518752054        0.21755797393612183
3.423942671885161         0.2162942957920379
3.4253465625578823        0.21573709269638924
3.4264943420183602        0.21528160081771186
3.4387990575855567        0.21040205884477683
3.4516914096189293        0.2057559838932246
3.453219122610818         0.20521155366643176
3.462682510645095         0.20128388910256315
3.4908604854136702        0.19253215765155351
3.500105389039603         0.18966798059981607
3.516644443878779         0.1845536386075432
3.5175731582170826        0.18426683738451177
3.5187771628999003        0.18420042942492318
3.521879826567321         0.18312278890049355
3.5529367803994627        0.17377814673407024
3.579933958628139         0.1656722292881523
3.61483880183086          0.15521999021854915
3.6273544533610504        0.1514809941599533
3.6376128772320797        0.1484945836471918
3.6412490722522364        0.14743543598713035
3.644964690779455         0.14814305634526137
3.696910738218344         0.13805164796099792
3.717954259117541         0.1331069833456706
3.7415153055846133        0.12819366834421986
3.75160206456135          0.12665922871196791
3.760105074462439         0.1251333450442894
3.767357501101502         0.12383271292628438
3.8069634746721963        0.11643558455070802
3.840124161332527         0.11024305582684892
3.846680840624014         0.10902059624468874
3.8595000331074516        0.10781448741778821
3.8920261424487173        0.10264622427208771
3.90488787781992          0.10135496583401489
3.929638014597751         0.09774908680527565
3.930186481936712         0.09768042560591565
3.9574195767016818        0.09427613227434595
3.977278692282475         0.09180014016701418
3.9807211446451976        0.09137153959587846
3.9889740940648184        0.0902354349901758
4.013692123249413         0.0869427958502794
4.028257041979831         0.08543240728612521
4.045223778732929         0.08367624583659579
4.045736603720602         0.08362322273061365
4.046827500218564         0.08351044187597237
4.068649421416797         0.08122047658268394
4.088758920778018         0.07904589529940044
4.091578421674583         0.07874140057083828
4.112701461079297         0.0764635021383064
4.125605910866039         0.07549539087695245
4.1590434484808405        0.07205931739683019
4.163825718306616         0.07171011561850238
4.207661411460755         0.06786157105982002
4.231533166257467         0.06582110364292912
4.235149635147642         0.0655407273655221
4.235246013158138         0.06553325658200211
4.237855834381147         0.06533097852925751
4.249163596916459         0.0644550833708692
4.250332077539607         0.06436862455974128
4.250529812277728         0.0643529261898442
4.290151906896995         0.06122238798227327
4.290565658121022         0.061190516543059334
4.3002343804705045        0.06044606554794879
4.314021421438207         0.05935966615241214
4.314217288467095         0.05934679798458144
4.323243874461042         0.05875407470692846
4.323506580299508         0.05873683352348683
4.3275042610259185        0.058560305062418494
4.33151802236295          0.05826780609328288
4.338862973277795         0.057732734661322366
4.338970896017376         0.057724874417793115
4.339080508366118         0.05752303702200223
4.339709556907813         0.05748179258048193
4.375883329935562         0.055113971259466446
4.376133525507846         0.05509762256231657
4.3835801564958174        0.0546112198106215
4.41874752633823          0.052401605705433354
4.4205463478575435        0.05229084794599524
4.422519777153181         0.052191077762191736
4.424501183948279         0.0520777938168701
4.426670745884413         0.05195377402021048
4.428054701926833         0.05196879972747909
4.438557937763816         0.05080256213385445
4.464957696724625         0.04945699312628518
4.536768782475818         0.045788281737307354
4.542158468919915         0.04550942565179088
4.542732727171181         0.04548006112280666
4.559337328639474         0.04463122554103705
4.576272622374907         0.04376597324997112
4.662946769776877         0.0393867367998329
4.6700818412328635        0.03902269845689398
4.675365770346129         0.03919043510440681