% Model:              valid_spheroid.mph
% Version:            COMSOL 5.5.0.306
% Date:               May 15 2020, 17:34
% Dimension:          1
% Nodes:              286
% Expressions:        1
% Description:        Line graph
% cln3x                   Height
0                         64790.064750911595
0.003830913807177594      65302.10552787465
0.004040526374757714      65330.13268232759
0.005559230584234132      65533.22913084452
0.0683160295949028        73430.3905906942
0.07602828297723552       74648.46982748696
0.08189424708264903       75578.71216942722
0.08664453831008678       76332.59115456736
0.09525502567753552       77700.3243985132
0.09962529521793317       78395.10708839221
0.1385331618232546        84485.97444477126
0.14491530828712396       85917.88303123017
0.15660013185564936       88544.6655500995
0.1680178646675523        91117.37982724952
0.1881699374665654        95671.11084299433
0.19027450660248446       96007.2735409514
0.21218667933147506       99979.25743137056
0.2175002017898604        100957.2779796053
0.25021366506331444       107004.26810730714
0.28145652033966606       116541.76963723742
0.2878110979133863        118319.74644834061
0.29564775189752557       120520.82647039594
0.3080428866767506        123885.76712974171
0.30963339596682715       124369.88702345212
0.37419085944406394       144152.4223343851
0.3750315112983551        144411.48921572033
0.3753155780729418        144499.0384713864
0.3774166948761377        145146.7157322514
0.3774652276695323        145161.67851130335
0.3776046484167639        147755.9347872162
0.37769450399565363       147635.78753770754
0.4252959694335259        162647.4289968793
0.42962001808674155       164639.2027486273
0.4452092619131316        171847.40744033904
0.46345441720875624       180332.76891720676
0.46750419201416726       182222.70583590964
0.4705460022824486        183643.69940784294
0.4900265195661204        193498.09840477226
0.506967541745055         201767.0491738837
0.5088583454417597        206741.60033315432
0.5123097896508897        200608.93086482267
0.5235249385240625        210310.31372802446
0.5293939011255268        208402.60566360923
0.5337975428219391        211849.0777387239
0.5484366313109507        228878.45785144225
0.554169993112446         226618.66406015324
0.5771320525240063        243106.0545614526
0.5894980064730606        252070.05189289365
0.6087681312103522        266139.70508991304
0.6316741663631245        283001.3659570197
0.632415005836094         284127.4689093922
0.6330204428040007        284702.9320829666
0.6457524352293456        296835.4040735504
0.6578000312895784        308365.6197459403
0.6593639203192281        312976.3714563298
0.6816459608426761        328065.81556589226
0.6843388419737285        329907.18817002897
0.6919244700115185        335948.8123508202
0.6986327001507185        343493.2061310162
0.7128995911777465        359752.20946226537
0.7326320409639973        382660.8772383977
0.7376050124307256        388502.45036275714
0.7554500879985937        408343.1565067192
0.7768393309118613        434542.2645972903
0.7775698431313803        418125.42021120625
0.7778040452609235        418129.0830087247
0.7940926796037568        418394.379567453
0.7960641211244197        418399.658949595
0.8028978292762288        418417.98849981953
0.8221507312565989        418469.87415381835
0.8300037291955847        418491.14143510483
0.8315773541869411        418495.4103189724
0.8415726958328434        418522.58177726733
0.844519492461573         418487.30848609214
0.8469384977881039        418431.25271637464
0.8677957399184334        418330.5148893399
0.8757268408051783        418292.2158904672
0.8820369015646199        418261.74767440057
0.8939178303707517        418380.0776197682
0.9099155643074193        418378.3197686237
0.9101636961941161        418378.2925050602
0.9255645057416316        418376.6751425157
0.9258937240456775        418376.72876997315
0.9318259574880983        418374.93482625036
0.9369848531145055        418374.8945291509
0.9372598383089975        418374.8923812444
0.9379635168772654        418374.8868848465
0.9653812780588489        418375.5514388589
0.9687304416357381        418377.5256058911
0.9833779932684397        418378.4938316457
0.9956824354447004        418379.3071744933
1.0030088288519896        418379.72845309664
1.0101432978977227        418380.199846032
1.0164702347017471        418380.76297154976
1.0214608639382856        418381.180355148
1.0221742919671937        418380.81653666875
1.0227556398778308        418380.8397129509
1.0230268702571075        418380.8505259503
1.0253558017565654        418380.94337237586
1.0309617324003197        418381.16686240095
1.0451605962289308        418381.8022385101
1.0495197783009118        418381.721758602
1.0601819886876744        418381.52491125365
1.0717041671978331        418381.31218714465
1.077457244956417         418381.2059730385
1.0776017710190007        418381.20330477867
1.0779041823894815        418381.53705928306
1.0783522882025944        418381.5155261605
1.0880374176309688        418382.2173382863
1.0915807246111677        418382.2901941598
1.0978017122717818        418382.4181073043
1.1245872580468337        418383.268953902
1.1278391504750893        418383.37957194477
1.1288176984439056        418383.4128587401
1.13249075772542          418383.5378034523
1.137571661885971         418383.710638217
1.1517423741080006        418384.1926771294
1.1524662087158473        418384.2378774146
1.1673025376763788        418385.2411523425
1.168097768399424         418385.2299196186
1.1853485753590878        418386.4610678669
1.1855789097410505        418386.3438501291
1.20075047098121          418387.3464404695
1.2136141813256867        418388.19652001356
1.2284901057721562        418389.28333553375
1.2401606412245483        418390.0721007538
1.2505965378778738        418390.7774216709
1.2535079632371922        418390.9626372222
1.261012700800891         418391.47847314307
1.2659405818894927        418391.81718960684
1.2799222689134417        418392.8349685156
1.280199790541464         418392.85506421525
1.282055990666956         418392.9894740669
1.2851720147191035        418393.2151094049
1.3112541682615966        418395.10375227605
1.3248926717699687        418395.88144208584
1.3348183290486442        418396.65495984635
1.3348244228543569        418396.6554347439
1.3566387069842876        418398.3554469311
1.3792658031368017        418399.63208908663
1.3795077748508953        418398.31990574644
1.3800199238247133        418400.0987068925
1.3949088098913653        418400.8366456276
1.416588058674126         418401.70708159695
1.4236117096386305        418401.989086154
1.4271947914693708        418402.1329494984
1.4273714957862624        418402.1400443062
1.4278961957708334        418402.872624367
1.4373619631197778        418403.1843983867
1.4721882653219112        418404.80291008536
1.4858551827718889        418405.34814943984
1.4877348145629146        418405.38329299376
1.4920301688659867        418405.5416583899
1.494194316770833         418405.621448375
1.4979084365320032        418405.75838432426
1.5227455239200638        418406.67410470906
1.5247124621450523        418406.74662399787
1.5255298013746685        418406.6831422187
1.5326955179391357        418406.97177734686
1.536750361645916         418407.13510651066
1.5470570808427189        418407.5502613855
1.5518231351742933        418407.74223819416
1.5610099872390593        418408.1122849304
1.5671093421952467        418408.1537216219
1.568143763029649         418408.1563579469
1.5701823404232447        418408.25095446274
1.5841375351616964        418408.89852102747
1.5999231430588845        418409.63102655596
1.6012865177387385        418409.69429183635
1.6020918171287604        418409.7527998447
1.6069764959290431        418410.09575799934
1.6069796859305072        418410.09598197276
1.6178578950932834        418410.8597518554
1.6178847178546885        418410.8616351083
1.6212343075898406        418411.09681313415
1.6268141694108664        418411.81767247204
1.6296627019831764        418411.77301250614
1.637573851716525         418412.1535955158
1.6439442814509129        418412.46005890873
1.65166475724283          418412.83146927867
1.6536881316240075        418412.92880814045
1.6680794576963347        418413.6211345973
1.6748976993807994        418414.08834768384
1.6821864672073252        418414.6064116717
1.683235007052507         418414.68093886634
1.683500419374433         418414.6998036144
1.696258470614255         418415.6066111643
1.709371942044096         418415.86831359216
1.7149928778530161        418415.7799237446
1.7209191173020686        418415.5001822482
1.7237753650410061        418415.3653564906
1.7254912541858354        418415.2843600649
1.737881294296097         418414.69950505946
1.7421582130007984        418414.49761954613
1.7458809767587282        418412.9703682198
1.7470882909089855        418413.0760007764
1.7478627393259432        418413.1437602552
1.7497978614283836        418413.31307158235
1.7507168552850028        418413.2702604223
1.7687240508537896        418413.80091074045
1.7710724800074997        418413.87011640973
1.7732559459360648        418413.93446085294
1.7761232839685237        418414.4111108079
1.7837097892670817        418415.8104598173
1.7902270306182546        418417.3194531965
1.7999198505488565        418418.3210433119
1.8005113494705465        418418.38216554996
1.8041205434557561        418418.75512165326
1.8144115178607554        418419.818557493
1.8185800120308127        418420.24932366255
1.8203613082547718        418420.4334015673
1.8221983305749931        418388.703402743
1.8249054051919003        418391.128684594
1.8380184378560072        418428.97503994056
1.8410685725574496        418432.860775417
1.8422952962778676        418434.4236243775
1.8451930362719131        418438.11548349954
1.8452834984602835        418438.23073962174
1.8462227147576236        418439.42738752626
1.8470319060998963        418403.1522126577
1.872657834537862         418389.16132502473
1.8818457145110579        418389.8697338934
1.882202475971009         418268.34746961656
1.8928200602089769        418335.3991814405
1.8953196541710604        418351.18825036386
1.9032483666005682        418401.28060916293
1.9155181444775184        418168.5526658703
1.9203900286225366        418177.1293264323
1.9235688478491615        418182.775224865
1.9348271656592522        419109.21783842455
1.9355206271287577        418761.3633506272
1.9404935419619342        418808.3252820562
1.943992894568657         418833.47343518055
1.9683671739245936        393655.4697043583
1.9786310057497736        381863.32847078884
1.9790345223866117        381399.0721006229
1.979454157853199         380916.2199030398
1.9798237561119867        380490.9002232802
1.9892664722542863        369611.5339241489
2.0195079531514044        334628.5955082718
2.0196074410460834        335247.54041729996
2.0196924790814936        341374.7110770392
2.0201822703657406        341563.2104819588
2.031694252158079         329634.60680176463
2.033757297133944         327428.62181458285
2.047666142171148         313868.4261253062
2.0609841092356476        302638.8463988745
2.0659222495526377        298484.1599418261
2.0801409521391205        286551.43983115716
2.0864230347578925        281294.6749503932
2.102935698912641         268847.03795637033
2.1143283658241594        259120.039358021
2.114462791833558         259359.68032896818
2.1322378617837714        250373.6696010215
2.133303730511622         249426.19163834845
2.147808260477623         241109.11805941543
2.169412111008265         225257.1710546192
2.1953858214418127        212163.8649696922
2.203892212846385         207900.5369569199
2.2152537834701733        202227.41650124322
2.228738593391701         195528.25139231543
2.238331535638312         191578.34661489844
2.2388356952728863        191360.99407381163
2.2633968752424405        180773.17010009105
2.2649236055048605        180115.09351731467
2.266564342298783         179407.88509473472
2.267486559592062         179031.94433269434
2.270438630239671         177950.29671004138
2.3023887524508346        169095.35009501327
2.3103862249295117        162970.22363574905
2.3193314245348606        160182.6927214711
2.3200163521695067        155093.2682699794
2.363887027038775         143333.2551653641
2.364918505422331         143020.88184675333
2.3786436091734218        138875.3281885454
2.395091938226592         133935.99680027
2.4431749178856537        119711.89077612068
2.4462381405807005        118818.39636238776
2.4480591999135157        118288.03622464472
2.4492410512921734        119348.06374402
2.4504738780696567        119051.5616687657
2.476101731330509         112888.71093638409
2.4824563547174296        111360.83730233078
2.4888516680391968        109823.29025405561
2.4966578853997747        107946.6929997015
2.5                       107143.31066773555
