% Model:              Validation_spheroid_prolate.mph
% Version:            COMSOL 5.5.0.359
% Date:               Mar 18 2020, 20:22
% Dimension:          1
% Nodes:              929
% Expressions:        1
% Description:        Line graph
% cln1x                   Height
-0.060207899999999974     0.1627593935357936
-0.060205360392640135     0.1657007274911848
-0.06020499466000559      0.09326649564724221
-0.06019424284465114      0.10806833538509864
-0.060194072233736164     0.10830321250500674
-0.060193663428297885     0.06905299602584591
-0.05889193875637022      1.9123471673268284
-0.058822893602301855     2.0101178655362304
-0.05837345174460518      2.6465455022685163
-0.0580080149166087       3.1640186588819006
-0.0574895364239465       4.069517462262752
-0.057239846395157334     4.343663494968396
-0.0569484559229696       4.887303582682193
-0.05693649364556285      4.903178638838881
-0.05663442458765266      5.304052410163251
-0.05645912991893475      5.5366847606199485
-0.056025611019790866     6.112004713091437
-0.05595270919455198      6.208752224478246
-0.05590452371372301      6.286191660328086
-0.055809214507486216     6.444717057718265
-0.055772509922659586     6.505766867337115
-0.05560403816782644      6.778023770226923
-0.05521925421189833      7.398912775427235
-0.05504917094817974      7.67335984315082
-0.05479270069003761      8.087201327411321
-0.05477976381778437      8.193551322415843
-0.05477744034234466      8.196685099148734
-0.054192028269720575     8.986256919488882
-0.05416952499119598      9.016608112125862
-0.0541595299521237       9.030088874761173
-0.05389586420136938      9.398921684601078
-0.053790652415087625     9.548604498361783
-0.05375642106417289      9.557083520515235
-0.053710206906209534     9.639513848992635
-0.05352709262148014      9.966127408651587
-0.0532656309409405       10.4472960087935
-0.052634401863691054     11.575371474864085
-0.05249179990890518      11.753422237262726
-0.05238319944904424      11.91737224428033
-0.052355049621853555     11.959868973772245
-0.052006553652577        12.485980158583942
-0.05192382735794354      12.59586495639931
-0.05172450639319415      12.888820434034841
-0.05166891497113201      12.97052689990089
-0.0511468274328184       13.984841192188398
-0.05108508470574891      14.157348203041693
-0.05102845680137147      14.2417277864173
-0.05071726265699339      14.7153137952686
-0.0506316555628905       14.860662801450388
-0.05028667062514303      15.446399513746652
-0.05003774581502973      15.86903941459893
-0.049917047391004006     16.184740155291024
-0.049568143190042095     16.767154226204866
-0.04932660179301585      17.170351172382794
-0.04909086999275725      17.563850353688167
-0.048962717512821774     17.77777098671936
-0.0488308807213248       17.99784171736826
-0.04876608618538426      18.179839707308155
-0.048240525464370076     19.238358689864555
-0.04804556858239406      19.572591915536464
-0.04788284859568748      19.894462889946226
-0.04762480128821477      20.40489765571158
-0.04749266396819051      20.666274077950533
-0.047415803239615695     20.818309719674176
-0.047263218356880854     21.120132783208533
-0.04712259149315057      21.398302088486673
-0.0469974023589369       21.645934536291065
-0.046779819578698145     22.0182041610299
-0.046664433612353506     22.23796566182635
-0.04635872863412438      23.117741427138924
-0.046093696787147254     23.498018906015602
-0.045958098297130934     23.670036788548032
-0.045892110783338325     24.033812395713312
-0.045626548955675195     24.59382083049036
-0.04531788550604743      25.24472061085362
-0.04453958532966906      26.885975558506857
-0.04452355556416687      26.919778624134523
-0.04442567393940122      27.126188317729657
-0.044050728002199106     27.916862524432872
-0.043951489688326406     28.172501050949364
-0.04360604981922256      29.071032742289027
-0.04332749544453396      29.795587015853524
-0.04318034901526002      30.012581905477788
-0.042871110347641246     30.935356386189284
-0.04282917626274175      31.06048854936708
-0.042675223910936255     31.51988550184268
-0.04229988029562959      32.63991849244525
-0.04223060030602366      32.75575927019969
-0.042195938355011675     32.84609220384101
-0.042136703941783704     33.00046373121364
-0.04201399789635907      33.19494918077373
-0.04197458343972982      33.27841994118717
-0.04157511024731442      34.124412350765056
-0.04135835638382313      35.01479754165034
-0.04129292117700999      35.186842631272754
-0.04088572523642453      36.257459895340475
-0.04040766250377337      37.514403209037994
-0.04032430356386141      37.7395972452955
-0.040206550307673616     38.035658187643946
-0.04016537446867574      38.05515871062324
-0.04013329567633883      38.16570410806405
-0.04003775008527688      38.49495981154345
-0.03879616970408695      42.773518531957265
-0.03879096464072407      42.79145548519787
-0.03878513369685809      42.815758770908246
-0.038771367901324405     42.85521393542058
-0.038733495759872616     42.896868270007985
-0.03855028381524339      43.457814801842574
-0.03779564068327501      45.768332538592716
-0.03757950246486841      46.26971665315
-0.037542614866723945     46.37111217187953
-0.03753709531780047      46.386284141712395
-0.03749423385568129      46.840772148212245
-0.036942539960697074     49.05183600505407
-0.036743947092838125     49.81569965428835
-0.03671408325465375      49.91653724541954
-0.036213318940323765     51.607407215661226
-0.03592633218958985      52.59765358837251
-0.03586236481933103      52.80814567929781
-0.03578886932942371      52.985586386316925
-0.035740456656076065     53.21744940659141
-0.03523179250936347      55.65359674584482
-0.035149323576171065     56.04856555476587
-0.034983646192252915     56.84204494704288
-0.034962169275437716     56.86878726113571
-0.03490467663878216      57.09985201507187
-0.034627467880562146     58.61722627878166
-0.033995626660223925     60.84329941672485
-0.033982388338614        60.73725979938678
-0.033872845446509155     61.17451906563281
-0.03368122628758575      62.35065836689421
-0.03363988212708913      62.55708781619421
-0.03315250420587135      64.99054285966224
-0.032969221392767145     65.90566532728349
-0.03294578232925405      66.02269546926823
-0.0328715475924346       66.3933460195895
-0.032778560045760415     66.93044765927516
-0.032649358761863256     67.31374938624288
-0.032462560970355714     68.62235298615371
-0.03244326207861481      68.72323264967088
-0.03198545993148238      71.11626781355656
-0.03195884982126507      71.25536486642898
-0.031623480032871076     73.00841845422593
-0.03155064299198007      73.38915410865044
-0.03152218546001839      73.55904535548791
-0.031167134446203004     75.15171628051641
-0.031049964063244673     75.98978236083082
-0.030975742833443398     76.52065282113892
-0.030866199691157337     77.29491981986632
-0.030646261934897282     78.7132823646275
-0.03046553439597333      79.87878107833444
-0.030312356898642426     80.64926934936747
-0.030102069978837465     81.89696216866133
-0.030036234608019408     82.28758237224457
-0.029977133118892496     82.63824851763155
-0.02980909166130408      83.635286850645
-0.029759394206157808     83.8846578509681
-0.029681624720644062     84.41886545735565
-0.02963916970071867      84.7104939080707
-0.029333214444977163     86.81213600781511
-0.02896186157413494      89.3630019026698
-0.028894085832194216     89.8285613265748
-0.028532375695443424     93.07404234438428
-0.02816753439295594      95.03983021010754
-0.028082978012102466     95.62249028176689
-0.02788213970445586      98.21706408735008
-0.02787882033312683      98.24786903657491
-0.027876845374284143     95.39895109849749
-0.027871904207595333     95.45177084710409
-0.02752672855306071      100.29420617833799
-0.02745000084403104      100.91461030333315
-0.026945649967973995     104.9926854590729
-0.0268347354053875       106.18512735315562
-0.02677154239926427      106.69577312838874
-0.026480780654437375     109.04534099522354
-0.026005522791164744     112.88577263340233
-0.025832687811030652     114.28240586597917
-0.025793494593485677     114.59911577084085
-0.02571393901284791      115.76378914536258
-0.025698249188059075     115.91900827111863
-0.02557811071504934      117.10753580416264
-0.024911206454337757     123.70520644124714
-0.024549869996798757     127.27990085610884
-0.02427907365950877      129.95888365532107
-0.024238705970476726     128.62790921543854
-0.024072075398316354     129.8734133966425
-0.023589521364892674     138.03776230900837
-0.02336060987452493      140.99325750420587
-0.023355114626862017     141.06420710152872
-0.023137448913366665     143.8745071409071
-0.022936528286618296     145.76775907093588
-0.022286689636200285     152.77235861304052
-0.02226280179387763      150.81047664420004
-0.02223586489294005      155.80095951373505
-0.022011839220622997     157.26053595946723
-0.02158592522396452      163.52331901463413
-0.02145156220217348      165.4751699678452
-0.021242835267879068     168.5072829720989
-0.020814770855086095     174.3415061477683
-0.020539149568480797     179.1711889365041
-0.020382502292105475     181.91610266914944
-0.01960400145469987      195.5576908851512
-0.019328837899853735     200.37935288845895
-0.01923972289930176      203.45894161369273
-0.019207816752645046     203.91670503288918
-0.019016656331214188     206.65931914642377
-0.018507961211668644     213.95766262102381
-0.01832638719728674      215.93166396834079
-0.018251216977718254     216.9359927035042
-0.018143857415990117     218.37039443143544
-0.01735242725239694      240.54563258233176
-0.017000959535130256     250.78746998881934
-0.016910936530853293     253.41075778269897
-0.016797071907675543     256.7287949725917
-0.016703848092811002     259.44535500740767
-0.016667056382450474     257.65864036103994
-0.01662666055078843      263.3998952433801
-0.01654526314874794      263.1782278136252
-0.015639863180028524     277.08211399180334
-0.015111301264567834     299.76742305291555
-0.015107182297493084     299.8857640251837
-0.015085183416335137     300.517808160959
-0.015059684488775817     301.25041122002835
-0.01496241545011101      303.45213308819893
-0.014842312643030597     307.1603633450625
-0.013834798959063477     346.3004314001478
-0.013784967169169882     348.4443978414024
-0.013776455743727545     347.12249126118945
-0.013265986341439606     363.853493759696
-0.013090631396322383     369.59140834200844
-0.012912321035206897     375.4260292050684
-0.01273711507843478      381.1590686331764
-0.012222433137759612     398.28768202899073
-0.012218430694074356     398.5733498353261
-0.011995155034049354     419.84698495925534
-0.011472355058075534     443.7809469305866
-0.011336469147105177     450.0018504789193
-0.011167235829597222     456.06474831399714
-0.011125656188706645     457.7921444173037
-0.010726771713100103     474.3635114150423
-0.010484317243552031     484.43610696796543
-0.0103687936016581       498.0991296285922
-0.010229349799194098     506.3256140883957
-0.010228887232473616     506.3529032032253
-0.01020533961629877      507.7420943691624
-0.009997115143148605     521.3955980337685
-0.009814184627781386     529.9928528380165
-0.009709051209475406     534.9338479683482
-0.009411449424118645     548.9203519355793
-0.00937670748316588      550.5531321098744
-0.008968390267668047     600.6379075543387
-0.00880397788552023      617.641568052497
-0.008785862813453504     619.5150433424919
-0.008642113872154189     610.9076141810848
-0.008398169228966412     629.7848512262049
-0.008126579269455593     645.4690576215717
-0.00793073820876422      671.2475738377225
-0.007658636451894019     707.0642689023841
-0.007532321687923282     717.6235244284235
-0.007522323036531996     718.2568585927775
-0.007475431292298552     721.227073523467
-0.007430383358980608     724.0804978591332
-0.0070405171899171615    748.7753846724365
-0.006960704003653895     761.2151937758255
-0.006596551892783742     797.9748417951519
-0.006483005967824251     809.4368328448977
-0.006254514586432557     832.502091852567
-0.006240875590635908     831.2189218698741
-0.006059986262136663     847.5387813473817
-0.005867728338811995     864.8843169747561
-0.0055072860546387945    946.3280287728826
-0.005322809730471168     951.7410251192186
-0.005060885249550395     987.366651704016
-0.004929765626950022     1005.2008713091409
-0.004842911141454409     1012.577716029539
-0.004622787134261452     1045.8773305923005
-0.004259163904699381     1100.885021688297
-0.003830489125167924     1165.7334910270447
-0.003404178379925682     1230.2243372621242
-0.003348323618729277     1307.7117647575524
-0.003287290281603905     1324.2160285860582
-0.0032232701156915686    1341.5279724896322
-0.0031874095358588326    1351.2251723885524
-0.0030418258872770836    1335.8975946341707
-0.002984033187662716     1372.7726770884074
-0.002484209116644376     1437.4752481947883
-0.0023248751630271514    1458.1011385057104
-0.0022833061165215       1376.5018823852583
-0.0020649352721677783    1468.4013982699516
-0.0016893247086535725    1696.0079733822229
-0.0014587044780303147    1752.2535085692275
-0.0010580277731342402    1849.9737980812913
-8.145649976939451E-4     1870.2939194364726
-6.467834421317598E-4     1888.4957605017617
-4.475077671803885E-4     2220.4908621890127
-1.781650882959335E-5     2207.6409424399717
6.089435494338591E-5      2205.2870935701094
5.320166358084854E-4      2329.8504101354
5.696886730126581E-4      2342.5434792125216
5.943301760480412E-4      2350.8460910011345
6.109347880904892E-4      2356.4407841288585
0.0012940535405434606     2809.413563233885
0.001366287790615095      2856.753703568638
0.001750416764733087      3174.7421239752234
0.0020811319442923804     3214.870373876275
0.0022568474469657485     3236.1913051143356
0.0024025643255294327     3253.8722695188017
0.0025349497690183576     3440.4275491406443
0.0027474957490802865     3179.216141003164
0.0029852103889231874     3540.5927506712364
0.0032941054402990666     4010.178664619251
0.0033308412247126107     4258.6746760228925
0.0036186372416664447     4423.801413092881
0.004307271515647582      4818.914354198319
0.004336214168627395      4835.520580716993
0.004339456457224999      5125.688755778778
0.004343856025698312      5131.797257485734
0.004353212266751338      5144.787762074937
0.004489894908614289      5334.562317510416
0.004542564308481989      5236.989519199455
0.004656917037338725      5202.825618381082
0.004749346762742412      5886.905245073805
0.004828632486137074      5936.438743166998
0.004894744347877289      5977.741913993184
0.0049716057766018285     6025.7608418677055
0.004996228892879762      6130.801852563306
0.005098310316448584      6048.355284395921
0.00512020708381522       6030.670251603243
0.005624954879312138      5623.008190535713
0.005987333006263196      7033.057508307265
0.006091830772933626      7273.808531826195
0.006186514765857741      7491.949731716468
0.006454107403622844      6229.024128009381
0.006640276451047811      8883.200069178161
0.006805007263435581      8830.229801095411
0.007006170618410135      8765.544411112971
0.007093276921960268      8737.534810578214
0.007123915163011141      8412.951988666922
0.007510706479420426      8957.732748721024
0.007589361715923948      9068.515637857272
0.00765775303902627       7986.969475441226
0.007717603050391819      8413.692540718199
0.007800496948462632      9004.715624431352
0.008100702765672319      11145.145402318154
0.008194091419905902      11810.994779576324
0.008310687912802539      11438.150853226081
0.008510160121995902      10154.168702493713
0.00864684816383754       7627.3774888869775
0.008689403743769697      7330.504992644346
0.008763815428554755      10790.903393164372
0.008807650703493097      10810.07186025921
0.008854358599535539      10751.358977857795
0.008911266292187303      10679.824720280412
0.009014791247817566      10549.691508114116
0.009069036898172733      10481.503497949896
0.009232930417942153      10375.644201290874
0.009293217868400205      10419.172022595943
0.009333260021346934      10448.082644373651
0.009521531687659346      10584.01566834122
0.009698501141639282      7153.81160862765
0.009771715858963193      6122.605582874632
0.009813355990566208      5536.117562546511
0.00988935279003633       8701.120460174177
0.009976451549826182      7982.212125004906
0.01011263661011541       8583.640527576106
0.010141549963808227      6847.236051090323
0.010212803895558453      6277.378256177629
0.010232213653810662      6122.1474953521465
0.010321498563048648      5408.08582538442
0.010457697328293714      4318.827645155836
0.010518190921025461      2505.338295249716
0.010570927928630569      2154.5775720797683
0.010722039864236477      1149.5123584892426
0.010752326943409775      948.0690404861089
0.010818535133946485      507.7097207778279
0.010838797730356564      372.9405464758456
0.010840109373996265      364.21663337387145
0.010866866181550972      5681.214966527063
0.010906621248910842      -2319.5013341409585
0.011050148958933194      -7250.3710959519185
0.011160973239948913      -8137.64467102557
0.011165340974141902      -6299.065509774693
0.011167244565688069      -6351.230302724318
0.011248756405258575      -8579.969832244424
0.011303233513559885      -10064.126142393416
0.011372846161384233      -12113.4275401829
0.01149656615774242       -23789.321223419618
0.011567098337003982      -23826.343853507416
0.011597030970107001      -23842.036560250664
0.01162760060614753       -23858.051499539346
0.011674988396595195      -23882.853761816667
0.011683777011495255      -23874.91324125227
0.011687127166748912      -23871.70907688291
0.011692745257767758      -23866.335807376257
0.01175698207074194       -23804.89826441009
0.011761752805668825      -23829.492778886033
0.011806348679765266      -23864.303562489717
0.011846768381421844      -23845.534522738857
0.011868569491958246      -23837.506570472786
0.011870973976246148      -23836.621152958935
0.011873727943254586      -23835.60704334992
0.011909545894461136      -23821.46035923076
0.011931046231829168      -23811.830446927896
0.011982702924789423      -23802.447224136296
0.011997836642429816      -23801.655350063258
0.01202421477256288       -23800.2751103997
0.012050162904179373      -23798.917370473755
0.012071507593311104      -23797.80050637459
0.012088825711624953      -23794.55477972429
0.01216830316961337       -23791.10038818063
0.01219891583864796       -23788.95655629652
0.01224244410578268       -23786.64858181287
0.012262172790953318      -23787.638251728655
0.012284102935816277      -23786.952957245114
0.012365003722724976      -23784.42489081723
0.012370188855598707      -23784.433241520135
0.01237415616170634       -23782.29146081739
0.012381052217129263      -23782.344338782772
0.012389380283996276      -23782.782045968823
0.01248606436720201       -23783.041551835635
0.012488435616887505      -23783.5235406821
0.012512570178423001      -23783.000781540963
0.012530177168508239      -23782.619410825253
0.01255197171285416       -23782.147336896756
0.01255437506331214       -23782.095279873858
0.012555780583745511      -23782.06483603714
0.012575233001735242      -23781.55632067882
0.012665620715849313      -23780.639767007164
0.01267101631484957       -23780.777185453102
0.012678174405411413      -23780.80551675579
0.012688389019445577      -23780.47193044967
0.012694074804751708      -23780.491680502542
0.012700854079985557      -23780.515228884193
0.012729611008557296      -23780.61511849046
0.012746242208875103      -23780.316243092704
0.01276710211941845       -23780.27657162753
0.01277622649685295       -23780.259218848238
0.012817206395549618      -23780.18128310534
0.012820335554119211      -23780.424727344434
0.012822927669177362      -23780.410791859234
0.0128276547650239        -23780.385378492254
0.01282883158785464       -23780.379051768236
0.012829826547767098      -23780.538480342715
0.012833924561018728      -23780.525223559787
0.01284412014285219       -23780.332606670767
0.012894053200206866      -23780.20051284768
0.01291028391220439       -23780.157575825273
0.012949983363655715      -23780.052554170456
0.012950916554243408      -23780.11806450598
0.012971195284072312      -23780.065063789778
0.013017867399567116      -23779.78197733277
0.013024496424911769      -23779.767203572555
0.013026890771326459      -23779.735697838318
0.013055830087198572      -23779.835691734304
0.013083617068854636      -23779.931703974726
0.013093672060844108      -23779.96644694591
0.013140924247367904      -23779.764568445564
0.013173053943912327      -23779.7107869009
0.013202021425278598      -23779.662298553212
0.013215836549660185      -23779.63917356878
0.013219416870470013      -23779.633180509354
0.013232324708298826      -23779.498464814096
0.013250660806079619      -23779.480364072966
0.01325133954667157       -23779.47969404451
0.013251774197732269      -23779.479264972644
0.013257195515425257      -23779.60012404935
0.013322599401651924      -23779.45069082294
0.013356017173463687      -23779.374338701607
0.01343169211147188       -23779.201438423173
0.013454918537860516      -23779.14837124267
0.0134994484910127        -23779.071872567823
0.013511652801946104      -23779.0532051951
0.013537998349115067      -23778.977119929827
0.01357355196177723       -23778.87444200737
0.01359382130857556       -23778.81590465307
0.013666523029131517      -23778.605943946677
0.013696575855295823      -23778.519152154637
0.013702621950337557      -23778.50416601918
0.013783561423118094      -23778.33440974733
0.013832038384635759      -23778.232737868675
0.013853963149341952      -23778.26424608205
0.01388771603540273       -23778.20311684534
0.013890878519555951      -23778.021852627033
0.013898005941465284      -23778.016250947225
0.013912505205877723      -23778.0048554896
0.013972396066376456      -23777.957785255894
0.014003224901797397      -23778.064453087194
0.014044153980122598      -23778.059956032987
0.014047427496704403      -23778.522195338843
0.014101838881635631      -23778.493898369386
0.014115946431960678      -23778.486561652615
0.014200065305660202      -23778.442815124195
0.01435285814734133       -23778.36335428383
0.014401241624575345      -23778.33873594033
0.014498846284474622      -23778.33978333602
0.014519385354825776      -23778.340003740785
0.01456227822649403       -23778.34046402425
0.014686267870575254      -23778.12294292314
0.014719253251116893      -23778.08720715851
0.014743614248799997      -23778.06081489438
0.014750169482290909      -23778.053713073023
0.014758368422156831      -23778.107214739495
0.014779523793090554      -23778.099651096978
0.014790508441086645      -23778.095723775223
0.014813880414434877      -23778.05310818059
0.014834924026434049      -23778.063051390734
0.014955734093823114      -23778.120134741646
0.014974572665250818      -23778.07460572527
0.01514619542761464       -23778.148310340184
0.01525312271535495       -23778.246561497752
0.015259312490739863      -23778.250458767663
0.015275093928885042      -23778.26039523855
0.015371560469880308      -23778.373526254727
0.015480870583763906      -23778.43587517422
0.015491760270603947      -23778.44208649505
0.015514694617394298      -23778.455167917244
0.01554201417156409       -23778.536658076766
0.015590059386867637      -23778.558661573137
0.0156222869405509        -23778.559334395384
0.01564453201088356       -23778.569299080656
0.015765919376120152      -23778.623674583556
0.015793454491850767      -23778.645470975436
0.015862959254573372      -23778.66326256009
0.01588345583314621       -23778.661602265056
0.015935637374965284      -23778.567509376822
0.016091467082346878      -23778.739671127565
0.016097400952633123      -23778.74622690899
0.016166717624510385      -23778.761783141563
0.016185953907580597      -23778.789438768825
0.0162824310492371        -23778.928142065484
0.016327517709823436      -23779.035673585284
0.016369895721290106      -23779.041184273505
0.016522728484846372      -23779.06105811076
0.01653125912635578       -23779.06216740553
0.01655494718881312       -23779.065247718216
0.016555368883098387      -23779.065302553907
0.0165784280447534        -23779.0940828647
0.016578594222680373      -23779.09415976517
0.016579880409480774      -23778.86158148304
0.01667494340909781       -23779.13233597726
0.016763609155652892      -23778.960588650894
0.016765593910071486      -23778.976672596647
0.016791641177652528      -23779.187753038917
0.01681020355630225       -23779.33817784181
0.016870880343109018      -23779.829887114254
0.016891663788839884      -23779.99831088082
0.016902453538519158      -23780.08574827244
0.01696589033323148       -23780.59982394807
0.017021594508133342      -23780.742435961387
0.017033915577607583      -23781.420582263345
0.01703736711421011       -23781.457569100305
0.017038658049396194      -23781.4714028253
0.017040684456789634      -23781.308884654456
0.017080894585780104      -23782.00098551254
0.017094147117910907      -23782.229089452696
0.01710395715948909       -23782.26260271172
0.01714077418515969       -23782.97324489323
0.017168886870821076      -23783.515875915327
0.017176265736432272      -23783.658302769792
0.017205944865942513      -23784.231169288905
0.01721867130628718       -23784.476815024143
0.017259798347953437      -23786.12812229467
0.017271217305053987      -23786.384136058507
0.017292165655019565      -23787.917891521334
0.017304951599104168      -23787.05087480486
0.017369071895750654      -23791.358532242506
0.017376138473143895      -23791.781469600595
0.017385071490257475      -23789.17038134698
0.017434653051011665      -23794.43842340986
0.01748268264749342       -23799.54156923004
0.017527706962199963      -23805.8102151544
0.01754162420272576       -23807.257846391454
0.017555962388187574      -23807.646577068997
0.01759272090428987       -23808.64315804452
0.01759482925791711       -23808.70031881533
0.017617635313770696      -23809.318626728564
0.01764620799491401       -23810.09327689073
0.017687322291427554      -23820.555697179814
0.01772221238290772       -23819.162565647537
0.017737635797050455      -23821.716995238705
0.017745015302564893      -23822.939190731835
0.017797522767265542      -23852.38731904293
0.017835372893378443      -23858.319880771523
0.017871518189954028      -23835.14470704872
0.017896931919438645      -23914.67025904951
0.01795368221258698       -23966.703638165636
0.017957378139853424      -23970.037970339705
0.018035731439557386      -24039.203832320083
0.018087237489401668      -24083.12954823635
0.018169780295775873      -13613.07217548816
0.018499727982525194      -5078.952737341915
0.018504468477480655      -4956.944174705326
0.018529598822877975      -4310.434052642
0.01858723894573555       -2829.3587866556154
0.01859599172490567       -3453.135399521183
0.018602005743193484      -3361.4005628314044
0.018611453113076992      -3375.9448217809913
0.018647248039074027      -2718.270136607998
0.018804241368999497      166.23195292154855
0.018824766655176853      543.3513559870712
0.01893825133880922       2628.4514505107054
0.018993312926598005      459.0372441181971
0.01901765952167755       155.02087377180578
0.01913833454988523       3980.948433383979
0.01915538780586501       10183.330508499988
0.019186183097134046      4251.524572318769
0.019387621891706397      6049.123197877814
0.01941632286784367       6305.244842003474
0.019455226946409887      6652.416886533192
0.019615563198078778      8521.833947869489
0.019626387964102765      8640.362907959317
0.01976122846482631       11238.492430096105
0.01993201176415793       10161.886145732647
0.019936648604086837      10132.65582270579
0.020033590790269784      9521.538885201031
0.020258097264411523      9935.803405568744
0.0204049369332322        10193.233315959016
0.020847197832494224      10968.576822114457
0.02088232411262858       11030.157968544136
0.02094393143477102       11381.525820410185
0.021046244528285296      11668.222237289738
0.02106347434793876       9835.481104923581
0.021070588373836907      9869.954110033219
0.021150652865125078      11553.185603861539
0.021238699379254378      11107.194226728732
0.021532080399528256      9621.100125781044
0.02154169486587909       9572.398946289635
0.021595095651903984      9257.22589204548
0.021605762673197578      9300.510290106798
0.021621480188135367      9364.288467198232
0.021823967500831376      10051.868392604862
0.021921766025198908      9559.8823941973
0.022031252185651388      9315.297854954079
0.022129648835921948      9095.48651742942
0.02220413949709421       8929.079512512597
0.022256163253788323      8812.862024310036
0.022472564359992564      8329.436862317487
0.022707331341813578      7804.983599540679
0.022790147289331708      8059.989194535323
0.023141093717168992      7636.846064169582
0.02340936295717322       7313.388473517425
0.023464966603780724      7201.621747631699
0.02348964593796676       7167.4439960941945
0.023524328587621657      7119.412919824837
0.023575225034520475      7048.927788291823
0.02393109744006816       5924.212002045
0.02403800426217306       5971.798434939243
0.024234089176916385      6966.866177315867
0.024640476294704564      6203.305516392635
0.024727587449165696      6039.632388572664
0.025021205973863037      5487.9526109325125
0.02555612173793631       4482.899506451631
0.025609216694588263      4375.375412407153
0.025652400963481536      4310.619712665777
0.026168566146108407      3536.619400984244
0.02661198989754343       3857.0332974166063
0.02683200107336603       3928.2618412181
0.026897377289729185      3872.2209409484676
0.02704608356180227       3683.1320224537326
0.027192518807865888      3536.653684321246
0.027249680877901694      3479.4747929809746
0.027362488660508166      3366.63381398997
0.02753015321272878       3198.9199224700715
0.027697378130425054      3031.6457948474776