% Model:              Validation_spheroid_oblate.mph
% Version:            COMSOL 5.5.0.359
% Date:               Mar 18 2020, 20:18
% Dimension:          3
% Nodes:              18914
% Expressions:        1
% Description:        Surface
% X                       Y                        Z                        Color
-0.06232754821186533      0.0041485329232864975    0.013432819588978802     1
-0.0623728521807326       0.004186725192687083     0.013480943034641998     1
-0.06236773920584011      0.00420554386559038      0.01340503236577386      1
-0.0624127291772452       0.00424402522560828      0.013453248543472369     1
-0.06241572807260542      0.004226918067410169     0.013529656550270715     1
-0.062407243781117366     0.004263133209989931     0.01337745435999504      1
-0.06224513146784892      0.004036280451424509     0.013489004842347458     1
-0.06229021717911034      0.004072806828052796     0.013537366664022499     1
-0.06228667692419946      0.0040921089346929946    0.013460811818279956     1
-0.06233146994796879      0.00412891917229689      0.013509258702305158     1
-0.062332940615604196     0.004111374055571428     0.013586283931743458     1
-0.062374702260791184     0.00416884927311619      0.0135579025361028       1
-0.062202917967820105     0.00398105602509571      0.013517394449851415     1
-0.06224830788047633      0.00401730330104326      0.013565710866147567     1
-0.06216004254911943      0.003926444207321276     0.013545976429461941     1
-0.06207233045572829      0.0038190926038944232    0.013603700659683006     1
-0.06211861179450363      0.0038539675406567566    0.01365413815227897      1
-0.062116511336753374     0.0038724535497159968    0.013574746569849078     1
-0.062162525455165096     0.003907615740647041     0.01362525810988518      1
-0.06216250120860641      0.0038911073190952645    0.01370509294241821      1
-0.06149403361827588      0.003230696901554445     0.013963872336299034     1
-0.06154564644094592      0.0032637407997174856    0.014014102565307895     1
-0.06154545635559854      0.003275906363991376     0.0139330613133383       1
-0.06159682628744223      0.003309294009014174     0.013983343771875517     1
-0.06159506690161184      0.003299509661358767     0.01406466842624538      1
-0.0615963161139962       0.003321835194223557     0.013902379999882199     1
-0.06164531470962951      0.0033535525766439736    0.013954325922778604     1
-0.06164660461923265      0.0033684752732836515    0.013871833497995253     1
-0.061695378584765315     0.0034005006128718642    0.013923831633121771     1
-0.06169206600839056      0.003387940270184823     0.014006640960181529     1
-0.06169631539624132      0.003415820128791267     0.013841425820651548     1
-0.061643840497938175     0.003343407729067301     0.014035629317850712     1
-0.06174478525100808      0.003448079277188166     0.013893516524459422     1
-0.06174544106042445      0.0034638624779306103    0.013811161527636603     1
-0.06179367888283938      0.0034964249488187234    0.013863308485322096     1
-0.06179094885703435      0.0034829566303761434    0.01394601156214558      1
-0.06179397422718422      0.0035125950378858913    0.013781045178735941     1
-0.06174181390001119      0.0034351090576645897    0.013976294187754935     1
-0.061888528079433534     0.003583080455110432     0.013875154520353062     1
-0.061842306135690535     0.0035466916569025417    0.013827899028467656     1
-0.06184008444708299      0.003532651762832122     0.013910541210829038     1
-0.060339349736286275     0.002478335803073709     0.014736040076939095     1
-0.06035069688161785      0.0024820257196360718    0.014667742781867905     1
-0.060289760598902634     0.0024540256733473647    0.014699879619305871     1
-0.06030029577774399      0.0024594484779247522    0.014631553089098496     1
-0.06036101432742347      0.002487903812751684     0.014599433976355408     1
-0.06023920942356914      0.002431819563405694     0.014663696002681888     1
-0.060578995922783846     0.0025965288983162906    0.01462123211958909      1
-0.06063873493218331      0.0026283696765447948    0.014589015323245035     1
-0.06053079205952727      0.0025706588925469348    0.01457824889687458      1
-0.06059071320695951      0.002602166081038964     0.014546004383186222     1
-0.06069802860130393      0.0026610123828882913    0.014556778429483169     1
-0.06048131372444107      0.0025472736960671766    0.014535285971747226     1
-0.06046036491627803      0.002535848756749459     0.014671888263200945     1
-0.06047138447267913      0.002540465767879483     0.014603580103197766     1
-0.060411200365617174     0.002510821081835115     0.014635660543745032     1
-0.060421356500393784     0.0025171805560709917    0.014567343369041901     1
-0.06040005749232365      0.002506688986742594     0.01470398017441572      1
-0.060519877147303336     0.002565814396308568     0.014646572344498244     1
-0.06011626747201043      0.0023791846537578143    0.014727878675526052     1
-0.0601751782338393       0.0024056425395086204    0.014805168304243695     1
-0.06017791294069569      0.002405085914100826     0.014695780172389535     1
-0.06023674829095242      0.002431826272175848     0.014773066996615689     1
-0.06023153037609878      0.0024378691346602374    0.014882170290025984     1
-0.06005428152765234      0.0023541207578995733    0.014759986841570018     1
-0.06011328811479985      0.002380305385875357     0.014837333630928179     1
-0.059991963617760345     0.0023298992020490154    0.0147921                1
-0.06028592306844889      0.002457100342944022     0.014809184086057102     1
-0.060334111510809404     0.0024845178469591655    0.014846184948576731     1
-0.06033710121918956      0.0024806788641400265    0.014791172208733732     1
-0.0602829534670066       0.0024609254952754327    0.014864207959929881     1
-0.06005028029852742      0.0023600723642953525    0.014927921055425198     1
-0.06014129975778984      0.002398105283456229     0.014905136060477248     1
-0.060021818296768795     0.0023432683519142       0.014860092588070185     1
-0.0601673702918887       0.0024189981909728576    0.014972378400772703     1
-0.06010922085708899      0.002388667651004815     0.014950258500654597     1
-0.06013526905295001      0.00241097317591305      0.015017477730021501     1
-0.06007729227561008      0.00238024441250335      0.014995424304034754     1
-0.06010280472641145      0.00240370188600588      0.015062444803765588     1
-0.060199632641929596     0.0024280547918022373    0.014927324760832084     1
-0.06269784321946999      0.004743635938506876     0.01316486492180977      1
-0.06273872510824834      0.004782374116716425     0.013214949839249502     1
-0.06273090509533293      0.004806037046465896     0.013139356126830056     1
-0.06277147043197097      0.004845006819862999     0.013189546285332199     1
-0.06277700712149566      0.0048227884161075344    0.01326575846483214      1
-0.06276322557959946      0.004868926126849998     0.013114096685064072     1
-0.06339601343141395      0.00796557749270102      0.01230063305420201      1
-0.0634206140309152       0.008007796185328004     0.012358416442719615     1
-0.06339170407688083      0.00803976352529687      0.012289883865640373     1
-0.0634159430985659       0.008082002716014542     0.012347829322488806     1
-0.06344219829759086      0.008050015395746091     0.01241739157004686      1
-0.06338655296521203      0.008113949647638084     0.012279512493038824     1
-0.06325947050879044      0.009000118047243048     0.012185047731892783     1
-0.06327462543994546      0.008926802611786869     0.012190779927584418     1
-0.06329272885838533      0.008974231598696503     0.012248623569220964     1
-0.06330748511784222      0.008900831942426999     0.012254549620731522     1
-0.06328895652071742      0.00885335335792936      0.012196904795703104     1
-0.0633231360743876       0.008947850328345056     0.012313411032159025     1
-0.06334370456963603      0.008804746468677009     0.012308151862653683     1
-0.06331740246275193      0.008829206791567425     0.012252069678312265     1
-0.0633305419717813       0.008755570922700004     0.012258763392449813     1
-0.06330246191658126      0.008779781415269578     0.012203421256881614     1
-0.06331513979301179      0.0087060979134066       0.012210328231752712     1
-0.06333383482135913      0.008876363734968983     0.012310624562523742     1
-0.06335753941389789      0.008410470905904386     0.01224183968081829      1
-0.06337782437631845      0.008451828891884535     0.01229518994698013      1
-0.06334818996045206      0.008484489348589324     0.012233381444849189     1
-0.06336811693510469      0.008525836018797228     0.012286897406900069     1
-0.06339558363490093      0.00849298960866712      0.012349582483351997     1
-0.06333800564947235      0.008558440750467336     0.012225309405103742     1
-0.06335431760064567      0.008608066225433647     0.012273310113987097     1
-0.06338253172524531      0.008575278324335585     0.012335715269832672     1
-0.063368381497582        0.008657453503849756     0.01232225785157447      1
-0.06334283820341784      0.00868190433524295      0.012265836723556012     1
-0.06332698831548385      0.008632313981939498     0.012217624640949165     1
-0.06341012599616423      0.008156141115098738     0.012336856531222209     1
-0.06338056032627733      0.00818812467652786      0.012269520745194107     1
-0.0634037711632932       0.008230326552287401     0.012327028797364163     1
-0.06343075894279071      0.008198256451471249     0.012395376858334119     1
-0.06337372641008732      0.008262277416510021     0.01225991042395852      1
-0.06343691373001217      0.00812414696052959      0.012406232499603204     1
-0.06339472790363775      0.008303669453414531     0.012312933164781126     1
-0.06336605217528471      0.008336396552011597     0.012250683033643812     1
-0.06338669449864053      0.008377786790275309     0.01230387037749592      1
-0.06341319940192641      0.00834493076091466      0.01236698888857763      1
-0.06340482238698927      0.008418992952941868     0.012358128439334332     1
-0.06342241928619352      0.008271615864883572     0.012381025704756512     1
-0.06344741832915556      0.008239743026914525     0.0124515553678302       1
-0.06343890417714414      0.008313113043796975     0.012437271111291412     1
-0.0634613932093013       0.008281096437698535     0.012508557215051962     1
-0.06294131738003336      0.0052559694532274106    0.012967986079972684     1
-0.0629772818087847       0.005289401034438035     0.013023482721000105     1
-0.0629683171823046       0.005322005052160027     0.012944576924710967     1
-0.06300403029090798      0.0053555940658030704    0.013000167224027758     1
-0.06301043193888986      0.005324291089248854     0.01307982644379288      1
-0.06299453818131638      0.005388451683967121     0.012921447069522458     1
-0.06303732177610769      0.009919831969111987     0.01223779113176922      1
-0.06300169564385244      0.009960703508529229     0.01219169556123565      1
-0.06302725538393125      0.009890878627503137     0.01219215463706982      1
-0.06299040025720043      0.009931304079701884     0.01214661904123613      1
-0.0629643183843114       0.010000926381448361     0.01214642292526737      1
-0.0630157155175927       0.00986140161333323      0.012147207158437989     1
-0.06302860262787256      0.00997095758234741      0.012261638609626875     1
-0.0629933322694091       0.010011977627782694     0.01221538423965977      1
-0.06301913176869278      0.010021804530347659     0.01228579320243925      1
-0.06308667854211919      0.009779373153666022     0.012239650897488326     1
-0.06305208295626644      0.009820689013711342     0.012193016872934635     1
-0.06307610050458556      0.00975032822062554      0.012194259762562002     1
-0.06304026093318049      0.00979122949252047      0.012148186930816322     1
-0.06306403327165602      0.00972079822744168      0.0121495580123145       1
-0.06310747577209119      0.00972560753370658      0.012247490488856764     1
-0.06309691099213481      0.009696556973983165     0.012202089086162856     1
-0.06312776113669306      0.00967167810823999      0.012255543146873273     1
-0.06311955995222664      0.009625725098862947     0.012204034307608571     1
-0.06308703833735482      0.00965009002680313      0.012151320839350742     1
-0.06310926323668949      0.009579143516048825     0.012153474595603352     1
-0.0632434935617776       0.009073288534698827     0.01217970928799544      1
-0.0632771641015341       0.009047497471605768     0.012243128582243527     1
-0.06322669643343203      0.009146302944555137     0.012174765675259618     1
-0.06329251988346742      0.009094405254281252     0.012303856839580062     1
-0.06326105610563341      0.009120645237423319     0.012238690484867455     1
-0.06330825172168297      0.009021205944457638     0.012308475045099293     1
-0.06317149995917963      0.009529728923613298     0.012260179390446166     1
-0.06314140436080913      0.009554728306710768     0.012206366065050642     1
-0.06316248534797782      0.009483439676112562     0.012209093125823238     1
-0.06313070473347454      0.009507969217965703     0.01215601893460054      1
-0.06315135959152451      0.009436577655340702     0.012158953509870528     1
-0.06327591869166159      0.009167028092291304     0.012299263848416793     1
-0.0632440506637717       0.009193202608856687     0.012234246862005428     1
-0.06325848339625231      0.009239474540720029     0.012294986276296669     1
-0.06319065124936768      0.00929181837704174      0.012166066346743925     1
-0.06320908131550182      0.009219149767005766     0.012170217877712884     1
-0.06322602086944935      0.00926597906096689      0.012229897092959163     1
-0.0631714095649313       0.009364297948373918     0.012162311438648404     1
-0.06318754363875587      0.009410900100534017     0.012222391122350063     1
-0.06320719647406518      0.00933850171991011      0.01222594770029269      1
-0.06322083785568731      0.009384479847325334     0.012287092499711872     1
-0.06324007917856388      0.009312077142330998     0.012290879538117151     1
-0.06319664219640031      0.009457230548664593     0.01227344932600133      1
-0.06322822271387399      0.009430557096327763     0.012340160259706965     1
-0.06320394205728556      0.009503304191055904     0.01232655622409541      1
-0.06323336525097953      0.00947604685265685      0.012393993544991164     1
-0.06309606048007281      0.009807913233607003     0.012286449270455965     1
-0.06311684747340117      0.009754137090166542     0.012294308161835427     1
-0.06310389138794927      0.009835931705250526     0.012333844045495103     1
-0.06307152916537534      0.009878205415037446     0.012285461102826805     1
-0.06306272974481478      0.009849677628494667     0.012239283235943576     1
-0.06308366631941677      0.00993779258712086      0.012381185719811002     1
-0.06305230135133381      0.009980133227031436     0.012333174053474623     1
-0.06309415520115011      0.009886994405018461     0.012357391105323154     1
-0.06306243890915479      0.009929202724440873     0.012309477708774578     1
-0.06325168345297011      0.009357515397759234     0.012354478224151333     1
-0.06327051295567442      0.00928499355035755      0.012358425635950179     1
-0.06327945927822913      0.009329788634850344     0.012422880942474849     1
-0.06325689931042172      0.009403043247427733     0.012408295649094417     1
-0.06330516842545957      0.009299005604519288     0.012494056443884096     1
-0.06328274222603787      0.009378286147780582     0.012482016219732208     1
-0.06330606648385459      0.009346917503289438     0.012553775651702726     1
-0.06332765603052813      0.009267449590558162     0.012565978828477096     1
-0.06328339584605171      0.009426115426166564     0.01254177920372015      1
-0.06310162851131743      0.00993382375853717      0.012438221183797936     1
-0.06311290500975121      0.00988329059292992      0.012414201188242475     1
-0.06311758593887674      0.009929133793803644     0.012495794944424984     1
-0.062494039515075595     0.004342488310757948     0.01347474676856212      1
-0.062451875540031794     0.004301841231315604     0.013425791303539809     1
-0.062455243498682485     0.004284426560499426     0.013502132425763582     1
-0.06237450591863887      0.004153311676288962     0.013636763089910782     1
-0.062415934376218        0.004211080841153559     0.01360843888018553      1
-0.06241351366267824      0.004197267806476392     0.013687563605100497     1
-0.06245658492811277      0.004269362823711501     0.013580369411797466     1
-0.06249577089284259      0.004327148780151039     0.013552904455004323     1
-0.06249483933028146      0.0043137650541503845    0.013631433406037265     1
-0.06245455560674888      0.004255237207734811     0.013659468255576204     1
-0.06247183922730709      0.004273386170288758     0.013763244167808403     1
-0.06248418401158676      0.00429297518453371      0.013697302421027693     1
-0.06244344205712379      0.00423476946982585      0.013725374868685367     1
-0.06274390536739821      0.004760518013649905     0.013291307782062065     1
-0.06270527668658724      0.004720299885382029     0.013240578898712066     1
-0.06271004097341407      0.004698729523435959     0.013317027088028722     1
-0.06262951399878648      0.004620336109639378     0.013216615597980635     1
-0.06267105778805195      0.004658664024471812     0.013266473430103122     1
-0.06266404462846856      0.0046817324204167605    0.013190619326645775     1
-0.06267440286530827      0.004634055417098958     0.013348656356680018     1
-0.06263519876219284      0.004594108395874624     0.013298147332370506     1
-0.0626378947230494       0.004569959700036568     0.013380470195512346     1
-0.06244605581269069      0.00432129240487048      0.013350089782972224     1
-0.06249036637089244      0.004360282502442809     0.01339852382600836      1
-0.0624841691755537       0.004380012898617353     0.013322942846035309     1
-0.06256551168912598      0.00445052777854895      0.013435419864931243     1
-0.06252624480312222      0.004414218974132967     0.013378825587367235     1
-0.06253007833798224      0.004396286164401711     0.01345502393750108      1
-0.06260207491231994      0.004509984205872873     0.013407870566826552     1
-0.06256304795442451      0.00447351289822672      0.013351187308894754     1
-0.06255827539512296      0.004499103576251282     0.013269318737738756     1
-0.0625994744957884       0.004533540760849698     0.013324531483254843     1
-0.06259425600688169      0.004559456623618581     0.013242849992456902     1
-0.06252157774469991      0.004439286139615828     0.013296017760514195     1
-0.06202750604419834      0.0037663699205359837    0.013632834481892243     1
-0.06207406815601129      0.0038009616453373494    0.013683238412828926     1
-0.06198204480628834      0.003714293688092409     0.013662143627293136     1
-0.061982560453084104     0.003683725138856935     0.013815740040715323     1
-0.06198341603887314      0.0036978796421345697    0.013738713567578269     1
-0.06188993618757582      0.0035963881422590356    0.013798066905461301     1
-0.0618892389629193       0.003612107485479902     0.013721271117668594     1
-0.06193586496348221      0.003633077354646461     0.013845403535509494     1
-0.062073979823860995     0.003785649144003929     0.01376477186586312      1
-0.06202921213981055      0.00374878275464821      0.013713210077886536     1
-0.062028583114304155     0.0037343839086104347    0.013790210912002674     1
-0.06211857565393514      0.003838068141757473     0.01373488154149272      1
-0.0621162968801145       0.0038248286536499334    0.013816684995478633     1
-0.06207128876012074      0.0037731908763985918    0.013842112326579344     1
-0.06215613526805662      0.003866248476441582     0.01386881831636722      1
-0.06216064309926273      0.0038775067910875784    0.013786829801376122     1
-0.06224405986325564      0.003973397135680302     0.013806320064157607     1
-0.06220450517097713      0.0039311932198085415    0.013755581424665252     1
-0.0622004549315497       0.003919520637068213     0.013837553887189206     1
-0.06223294156940637      0.003959830450624889     0.01395328540972607      1
-0.06223958481503654      0.003965735407043522     0.013879804009720173     1
-0.06219556215075804      0.003912191582617304     0.013911060961230251     1
-0.06218792276518641      0.003907174429481095     0.01400072226393741      1
-0.062150625737499944     0.0038594354339111666    0.01395849994449316      1
-0.06214193369967401      0.003855301874863485     0.014048091513204724     1
-0.06070944451354771      0.002667720613264486     0.014481468819539345     1
-0.06060120005245011      0.0026105216863695387    0.014470660342642945     1
-0.06071941052019672      0.0026770381568375543    0.014406228132898064     1
-0.06095052255547831      0.0028197121454487054    0.014278098350608892     1
-0.06100668769766666      0.0028504506776198574    0.014329573919273258     1
-0.061007142790039784     0.0028573589463187317    0.014246247355928002     1
-0.06106308859351659      0.002888495156275665     0.014297753702514225     1
-0.06106077423206629      0.002884455643003447     0.01438121526408312      1
-0.06106328225873732      0.002895786745855909     0.014214478631630556     1
-0.061118932552847165     0.0029272703527103397    0.014266057164903315     1
-0.06111893213349076      0.002934990382650369     0.014182797022730002     1
-0.06117435281908659      0.002966868608627493     0.014234411359578454     1
-0.06117244839409902      0.002961948889198433     0.014317840256765173     1
-0.06117408358621988      0.002974964695292238     0.01415120737423978      1
-0.061116871488262406     0.0029228247087158335    0.014349524528799822     1
-0.061283815704257255     0.003043984232363295     0.014247614910647152     1
-0.06122997462465112      0.0030080106227432855    0.014199294135408585     1
-0.061228420251372116     0.0030025672441985284    0.014282718139210565     1
-0.060835875101084284     0.0027467821853495934    0.014342027771067245     1
-0.0607778655374121       0.002711509348940254     0.014374096506817818     1
-0.060834513971127845     0.0027411711261002224    0.014419649658190092     1
-0.06077627093091821      0.002706279816194017     0.014451758518094571     1
-0.06083142248340032      0.002738498272150917     0.014497375342120434     1
-0.06089343038313308      0.0027828515046557016    0.014310026770659791     1
-0.06094926862724712      0.0028131635787230743    0.014354916682780291     1
-0.060891938341873786     0.002776673785952597     0.014386889444736085     1
-0.06094626885784524      0.002809435807287364     0.014431872404283154     1
-0.060889088329051586     0.002773577042585599     0.01446462694817819      1
-0.06100376459742116      0.002846574635833633     0.014406543635102955     1
-0.06111338214333447      0.002922087700116414     0.014434674494278536     1
-0.06116924725411274      0.0029608322244479425    0.014402977624739256     1
-0.06116374098664254      0.0029628807675560883    0.014487978544833156     1
-0.060942316472340025     0.002808976602204524     0.014510184526568088     1
-0.06088486372437761      0.00277352088175155      0.01454294404557554      1
-0.06093655320938422      0.0028112740298716896    0.014588351060523147     1
-0.060999920701658675     0.0028460024238328835    0.014484879299781626     1
-0.06105115813583745      0.0028856597210923326    0.01453831131652859      1
-0.06075238176136398      0.0026947859669374254    0.014602970752933299     1
-0.060765098637012654     0.002699327562900405     0.014527692575938968     1
-0.06080502657667257      0.0027313907883613924    0.014648982705387212     1
-0.0608189810364487       0.00273372906767549      0.014573254006672321     1
-0.06087109633400082      0.0027708657562793837    0.01461871675705492      1
-0.06088977296465199      0.0027995268227264704    0.01472742174210608      1
-0.06091377938615224      0.002804503029266843     0.014658018058321436     1
-0.060848042670016464     0.00276449490385863      0.014688345414667544     1
-0.06095720771295529      0.0028477736291515213    0.014728451894612882     1
-0.06098157928527583      0.0028522704835520175    0.014659119522935447     1
-0.06102365848513448      0.0028973716581772234    0.014729197403680887     1
-0.062247909228630834     0.0039857768109439334    0.013724528162299823     1
-0.06224964915665987      0.004000846140894205     0.013644360213703027     1
-0.062329626523653994     0.004083567309695336     0.013744365396938026     1
-0.062332573698600666     0.004096428058355542     0.013665168732208084     1
-0.06237194057903745      0.004140131316940161     0.013715938665702232     1
-0.06228720982695683      0.004028185628971188     0.013775321670227467     1
-0.06144205528702002      0.0031862140901171287    0.013994808508735593     1
-0.06149392390971441      0.0032189196194089952    0.014045028160703837     1
-0.06138952861528981      0.003142465476136375     0.014025865284651098     1
-0.06133824653874574      0.0030910804786157555    0.014136538701587533     1
-0.06128285591328453      0.0030572047024787176    0.014088323338544113     1
-0.06139140601191744      0.0031277157579567517    0.014185006433410648     1
-0.06139151991559564      0.003133689748138977     0.014105293974693916     1
-0.06133788736289264      0.0030854839942216724    0.01421629632979371      1
-0.06159180296583211      0.003293098584738796     0.01414774362751118      1
-0.06149230749211254      0.0032104304539916904    0.01412804685361318      1
-0.06158612701334626      0.0032894644502972246    0.014230855932198997     1
-0.06149044534647112      0.003206570796081271     0.01420793045160876      1
-0.06168363675885269      0.003375912720019777     0.014172947310450648     1
-0.061640546951481856     0.0033363644658063116    0.014118781451998992     1
-0.06163515825491829      0.003332385176112583     0.014201914029261879     1
-0.06168908767470458      0.003380563112613447     0.01408975869718688      1
-0.06162428377330319      0.0033280437237666943    0.014283007678037545     1
-0.06167310223549492      0.0033712249799915913    0.014254051372554198     1
-0.061660307393616165     0.003368911157235087     0.014334931603531534     1
-0.061577891743817115     0.0032972964452187264    0.01438081907139826      1
-0.061619291581705204     0.003332902971253349     0.014357906763742843     1
-0.061583032146889816     0.0032922631858461494    0.014305952437854126     1
-0.06157073158964182      0.003304475111246325     0.014455336575405587     1
-0.06161229937587245      0.00333993382125696      0.014432465175441132     1
-0.06156159181732545      0.0033137096558686916    0.01452940898094734      1
-0.06173704975741362      0.0034253619491233555    0.014060885309628906     1
-0.061786556146653744     0.003472830761471984     0.014030559648684991     1
-0.061779585142734635     0.003465426230789574     0.014115215493879053     1
-0.061731896768018275     0.0034203687771206712    0.014144090170763807     1
-0.06172171074913643      0.0034153548504152614    0.014225235305160181     1
-0.06193306503107278      0.00362205842901152      0.013924176373132204     1
-0.0619801183282087       0.003672369879335869     0.013894459406010067     1
-0.06197532120910994      0.0036632973763819996    0.013973365661520477     1
-0.06206700389925099      0.0037636185936219214    0.013921057107759868     1
-0.062060903286036154     0.0037572937334957555    0.014010813601735618     1
-0.06205155352415717      0.0037535635211949237    0.014100429858570006     1
-0.06209706737713275      0.0038041607014477016    0.014074291036289604     1
-0.06201501960006744      0.0037070032244189586    0.014036963729742209     1
-0.061927260782090966     0.0036125838700335347    0.01400874567303909      1
-0.061884820102224986     0.0035714917582041748    0.013959560434611575     1
-0.06187848048643628      0.0035625670293061543    0.01404413224609603      1
-0.06183583281235804      0.003521605864050221     0.013995013069645162     1
-0.061829381417352745     0.003513644959454666     0.014079678270329242     1
-0.061920534314454705     0.003607441363885152     0.014091971830116595     1
-0.061969131893028835     0.003657664719792597     0.01405658356040212      1
-0.06196032228057909      0.0036544553941859226    0.014139692882672743     1
-0.0618716189117667       0.0035583359311069087    0.014127560252536864     1
-0.06200624360517315      0.00370374008750677      0.014120091716713903     1
-0.06175733758746454      0.0034567753044381783    0.014277086309025905     1
-0.06176961707567093      0.003459937335680005     0.014196248021046265     1
-0.06170910817230144      0.0034125559015157907    0.01430605170635471      1
-0.06138993661377957      0.0031251360387639644    0.014266384296164876     1
-0.061487228382164624     0.003206187944920101     0.014289364930822264     1
-0.06138621776819633      0.003125381648865329     0.014347729987379109     1
-0.06133613345916454      0.003083247997418697     0.014297697899743337     1
-0.06152805348478074      0.00325554853610728      0.014409021152338533     1
-0.06152067759880114      0.003262941312562293     0.014483511675940336     1
-0.061477677442305076     0.0032143857224577774    0.014437127673649467     1
-0.06153338405062802      0.003250271443186134     0.014334169495840226     1
-0.06143293723853945      0.003168731538272178     0.014392564296522319     1
-0.061331235606132545     0.0030834050305258115    0.01438283756177296      1
-0.061280916401778844     0.0030415279125268918    0.014332791719162036     1
-0.06127564434479558      0.003042188408289002     0.014417886396893552     1
-0.06122513187876162      0.0030006106761463736    0.014367914004698825     1