% Model:              Validation_spheroid_prolate.mph
% Version:            COMSOL 5.5.0.359
% Date:               Mar 18 2020, 20:22
% Dimension:          1
% Nodes:              905
% Expressions:        1
% Description:        Line graph
% cln1x                   Height
-0.06695969999999997      -110.43729266690639
-0.0669472655346975       -110.43833862744532
-0.06694704403802945      -110.2149724842451
-0.06694632765214702      -110.21514926969144
-0.06554165164780133      -110.52639058182366
-0.06525606242507787      -110.60147409650399
-0.06525134823391943      -110.60271349215584
-0.06524460319584502      -110.60448681245389
-0.06522258112072588      -110.6102765785542
-0.06499072608340928      -110.67123297926184
-0.06446004345774403      -110.91519040071341
-0.06426183170342326      -111.00620295728864
-0.06356136284687963      -111.32783605948994
-0.06349317453448511      -111.35914597176456
-0.06346284874081987      -111.38002831194146
-0.06297393911753679      -111.74519038763422
-0.06251620234910726      -112.04147660527684
-0.0623667209577946       -112.13823369165124
-0.06175661140825639      -112.6418265678233
-0.06156709017508799      -112.81964408054426
-0.061392061433037444     -112.98386407344998
-0.06131689221768676      -113.0543912786793
-0.06101048876967197      -113.39377532862405
-0.06050380927067067      -113.92867350320454
-0.06041756653770758      -114.01971938235286
-0.06013218717432878      -114.32099247675595
-0.05993718824155492      -114.58368429206871
-0.059813458501573484     -114.71113527148646
-0.059756379347133626     -114.77960535966122
-0.059708034987592244     -114.82299661178422
-0.05954771663611902      -115.0229520808582
-0.05915821931871102      -115.61180903843172
-0.05885223508962589      -116.05421618295713
-0.05877529978641128      -116.16553783386314
-0.05856411101517278      -116.44653113908038
-0.05845918986817111      -116.59752037193522
-0.058443660756743454     -116.6198679032806
-0.05832108441728967      -116.79626425415213
-0.05817580150580248      -117.00533702908149
-0.05794363200035302      -117.33944599111646
-0.05765492206411449      -117.75492078371985
-0.05723395657330376      -118.43908977737004
-0.05711908037389968      -118.6645074386987
-0.056968935750941974     -118.94708827444254
-0.05678360494685541      -119.30569543646533
-0.056577198314952996     -119.70508342193261
-0.056335022293835364     -120.18769837357709
-0.05621248350226904      -120.41912168136747
-0.05610826922534073      -120.61593782731973
-0.05595951162666602      -120.73435551113585
-0.055935126534297115     -120.79002003073651
-0.05591361305629427      -120.83912943741348
-0.05498401314173418      -122.96115267530948
-0.054738705477091365     -123.4899697866359
-0.05445588877273311      -124.10395106746142
-0.053713978778774596     -125.9500962660523
-0.05364912099013741      -126.10655920473154
-0.05340743864901232      -126.7308336714392
-0.05338280303227694      -126.79446838479024
-0.053364605679413486     -126.89904891292804
-0.0533106512941085       -127.03812559550806
-0.0531491186747155       -127.4545036286662
-0.053014883260731116     -127.8005184327676
-0.05268564673061249      -128.61455609512512
-0.052139298712143844     -130.22443774213295
-0.05202054964350866      -130.5743464811282
-0.051827622836122966     -131.14282905254203
-0.05156386582127337      -131.92002154363217
-0.051269939456412006     -132.78611173590247
-0.050923705507290085     -134.0167960447313
-0.05050680752648429      -135.42910787022203
-0.0501458534279271       -136.72832674551728
-0.049809964725903155     -138.01665273796357
-0.04963440747673531      -138.68781502102956
-0.049379540157060475     -139.6621828296104
-0.049163278344775296     -140.4889602618249
-0.048981969826293215     -141.1821098741625
-0.04861997304986776      -142.64213889043026
-0.048353806955999674     -143.6069105567476
-0.048150058423785946     -144.3557463311518
-0.047638756068921206     -146.43347202996983
-0.047480697269691396     -147.24863949934772
-0.04717213191174241      -148.72885418719295
-0.04663634489502555      -151.2990708083106
-0.04648567575836693      -152.0218436774668
-0.04643559085633475      -152.26210528077945
-0.04631107148775859      -152.75191985813046
-0.04622222277666377      -153.20369257171546
-0.046191409481203594     -153.36037020871254
-0.04611183869139801      -153.76496709244554
-0.046025118841867        -154.20591509564838
-0.04598162823601548      -154.42705357676925
-0.04558693421263072      -156.47885912110354
-0.04558257956272349      -156.50148399584344
-0.045171219425636844     -158.6387330912051
-0.04505366522751376      -159.25852510893515
-0.044615727260162164     -161.90892161589957
-0.04418679764347977      -164.42245830562405
-0.04415571722986822      -164.60459019138528
-0.0440327278565823       -165.24824915512454
-0.04354611671778319      -168.237982349935
-0.04336026575938268      -169.36298667760605
-0.043052563356437146     -171.41762422948608
-0.0425921600735194       -174.57172366658082
-0.04252589097892545      -175.03998406664084
-0.04214549569167314      -177.72787425860452
-0.04210799391411524      -177.99286350389053
-0.041747312480045484     -180.54145472346744
-0.04134245237011469      -183.4022144517529
-0.04116624198562868      -184.5548791620555
-0.04075863747964481      -187.82225072979725
-0.04042127316631339      -190.76852857473466
-0.040118110118841255     -193.40243725379713
-0.04008657550984962      -193.69038012524044
-0.03982628574177438      -195.7575496865793
-0.03968583101150025      -197.08922766602012
-0.03964768235414806      -197.45092233334816
-0.038852925022534464     -204.9861675717611
-0.038686614745668035     -206.56298690013676
-0.03852617161459826      -207.89075005609052
-0.03841509312279178      -208.75577971660186
-0.03797543286219396      -212.76647193950157
-0.037664413972503974     -216.13610394680927
-0.0372715743935188       -220.76488288487167
-0.037029995173625485     -223.58259543177257
-0.037018689462754995     -223.71446208564066
-0.0364628284276739       -230.1978699448641
-0.03629661527871986      -231.98634510649208
-0.03619034284272593      -233.26710880140604
-0.03553837767668799      -240.90828033789103
-0.035444890086868575     -242.1524621288887
-0.034916062405692116     -249.19037777916182
-0.03474288909825884      -251.5529467775583
-0.034678060096256846     -252.4628544134717
-0.034182054120364125     -259.91078532974234
-0.03413159469940008      -260.6682916756832
-0.03404202886441365      -262.012870885775
-0.033796877779206036     -265.6931252210626
-0.033774995369803884     -265.89215200735316
-0.033754124689195475     -266.21894394310993
-0.0331270471504761       -275.5345839330908
-0.032910044263182225     -279.19921990935075
-0.03289117375690853      -279.5178955594452
-0.032863738725596114     -279.77501920082864
-0.03257580991132458      -284.8996044310876
-0.032098712865039625     -293.3910243779824
-0.032038672937730994     -294.45962088330316
-0.031955477936425725     -295.87217267546566
-0.031916508681754885     -296.59960172116735
-0.03161578095217821      -302.21320883757653
-0.031526065838547446     -303.8878977697741
-0.03147234237274266      -304.8907398767685
-0.030934932282664755     -315.0520322897247
-0.030759796493560754     -318.6991277789336
-0.030732713424139524     -319.2631161037949
-0.030075387762397376     -332.9515202166624
-0.030062201142282193     -333.2261235001274
-0.030038549446114282     -333.0495271030165
-0.029455357412240916     -347.2226987201112
-0.029260442981808632     -351.8637934565336
-0.029117111241615312     -355.3310898068821
-0.029114717063407736     -355.3890066740746
-0.029109371484393187     -355.5183200179483
-0.02910505671231467      -354.7841765575222
-0.029100329163025074     -354.9068283619529
-0.028837033125258538     -361.73779556152954
-0.027914057489106803     -385.68352733189977
-0.02791017325755507      -385.78430005354994
-0.027871729490922755     -386.4298708978181
-0.027521557970889843     -396.425063396317
-0.02734909079017911      -401.3479156908586
-0.02734352053133249      -401.5069115150568
-0.02683566272830684      -417.86551782202923
-0.026768244136648023     -419.7349734874997
-0.026602171032258926     -425.3719747879113
-0.026422901618151418     -431.45689699229433
-0.026056648930080084     -444.3099032002367
-0.025996419004675864     -446.34953048691955
-0.025945412678990865     -448.07680962536267
-0.02591231493291446      -449.19763229900957
-0.025886713986600585     -450.06458320947826
-0.025310452716212458     -469.5791053254304
-0.02504048006373727      -480.16623085685364
-0.024490703615077217     -502.9228235734083
-0.024311779917059795     -511.3433440515232
-0.02427275486831482      -512.9554196282397
-0.024173927062577816     -517.0378717212589
-0.024038109284619802     -522.6483329447874
-0.023924973465394128     -527.3218310412867
-0.023763009079253994     -534.0123756937892
-0.02361912813716671      -539.9559160647359
-0.02353986579175915      -543.2841332286171
-0.02345977516463127      -546.9954858306673
-0.023160109280273126     -559.5877478397397
-0.02312247339884732      -561.5218360152196
-0.022918760642705593     -571.9905275383665
-0.022657255597727688     -583.206245359074
-0.02262274917734497      -585.2308414406541
-0.022270860740335907     -605.8772006636609
-0.022032018905490558     -619.8907737199755
-0.02198162569692874      -622.8474957288333
-0.021548783677516337     -648.9079997016177
-0.021383501056197796     -658.5382521351851
-0.02072472699056138      -703.8696666786891
-0.020599719039941625     -712.7682351755975
-0.020269028228018567     -736.308136650717
-0.01983470468240811      -767.2250327463157
-0.019617460247286497     -785.940313979951
-0.019066448618930587     -823.9412011869608
-0.018770968918456754     -845.9569856476155
-0.01834575904299207      -886.3709085358087
-0.0183011422531022       -890.6114956203763
-0.018223346119193518     -898.0056017740744
-0.018141746054827212     -905.7612511586658
-0.01775204401248809      -942.8003445504969
-0.017561662830156477     -966.9290249817991
-0.017544902210981598     -968.6229195150099
-0.017437133486519433     -979.5144534919257
-0.01739552603178396      -978.4669315858869
-0.017120181831288606     -1011.6391103375396
-0.017026033886889946     -1022.9816134121421
-0.015980052706508374     -1148.99652356481
-0.014955093394877217     -1272.2307221684
-0.014699278639434987     -1331.657341768207
-0.014622853662095814     -1341.9079030318921
-0.014584158066615836     -1365.2227946165985
-0.014580111930177277     -1366.2497233811498
-0.014509750043611767     -1379.8657603100105
-0.014450598604455966     -1397.840292719627
-0.01404715465269857      -1449.7337896345205
-0.013529594289376723     -1561.0717577229498
-0.013168787695686746     -1638.6887389703452
-0.013053190767487566     -1663.5560356473115
-0.012755754842916245     -1727.5406716919358
-0.012496243869359658     -1783.36686422916
-0.012289562330963344     -1838.5524810618417
-0.01203728035251872      -1908.9267366719696
-0.011739575939762714     -1991.9716159325517
-0.01137193563202099      -2087.2841504651688
-0.01125160086663235      -2123.4446489669895
-0.010955347574368777     -2212.4685208003575
-0.01064783957176618      -2304.8744238782947
-0.010630934355429831     -2315.581912056801
-0.010435480826053388     -2389.0287400844663
-0.010081056406589406     -2543.842696148078
-0.009762136761383157     -2662.2240270552593
-0.009177196133670074     -2964.94525550176
-0.009131657856949693     -2988.51243893374
-0.009070849798197502     -3019.982111876239
-0.009023893269700434     -3044.2832756469747
-0.008984221153053642     -3064.81457629085
-0.008237157477288926     -3438.068551043692
-0.00801671645941382      -3539.829502749685
-0.007863535195427818     -3651.0622009532185
-0.007706265953739244     -3752.803024213935
-0.0074209917932893665    -3937.3529567217197
-0.007091307724583108     -4148.53619588855
-0.006881099151714088     -4314.833414045492
-0.0067104626280849455    -4449.824955104949
-0.006680799854795749     -4473.291346667806
-0.006452437720876225     -4653.949951999099
-0.006351736641732719     -4733.615158314933
-0.006134343460760583     -4905.5961615087435
-0.005784006458087964     -5284.953633374063
-0.0055477409289117485    -5712.336512107067
-0.005494437312727918     -5656.41356388595
-0.005479919993048643     -5672.3944478012545
-0.0053608547326662315    -5803.46327776109
-0.005246955620928029     -5945.662838440846
-0.005227454847621549     -5967.098860679958
-0.004884047213118748     -6344.586131291685
-0.004880329959606078     -6348.672283554143
-0.004741974589660858     -6618.223932224176
-0.004445113316742022     -7028.550150754708
-0.004439399094923635     -7036.448436063289
-0.004289321609983188     -7243.887844635192
-0.00406663102992888      -7494.190869931797
-0.0038081786220311997    -7926.478597031321
-0.0038062322706478025    -7929.73406608463
-0.003651387933530148     -8188.726841935733
-0.002998619714313921     -9280.547545419
-0.0028248244284954094    -9571.237694906184
-0.002761547680297238     -10511.9337293996
-0.002709295012630397     -10396.758996981094
-0.002376102091429022     -11442.809112802686
-0.002332181754988283     -11580.695814762323
-0.0021064568169747444    -11986.206411159934
-0.0020622074330722824    -12144.790455243852
-0.0019540870222145563    -12532.279963337915
-0.0014522422031471027    -14391.464342888703
-0.0011473757446425203    -15507.374537223046
-7.513811972075236E-4     -17224.284785967284
-7.423773664950728E-4     -17263.322619513983
-7.365380761436002E-4     -17373.129929080795
-6.539213693366186E-4     -17621.997202613624
-6.05397631374016E-4      -17768.165826794888
-5.800360213482625E-4     -17666.02453201011
-3.361573155373776E-4     -19146.363013718
1.6686426972167823E-5     -21112.51203767568
3.982706370677658E-4      -24491.75488770778
4.24685557311344E-4       -24620.7057423746
5.645548117954037E-4      -25303.511510516226
6.35986065556926E-4       -25652.22054077364
9.711643728320674E-4      -27288.474929971875
0.0010077390783409523     -27467.023246266734
0.0011689559813912174     -29234.819633307656
0.0016121833411453237     -33217.10252592935
0.0016786368484793535     -35245.88399059362
0.0016948132337748503     -36080.93126399684
0.0016978074226878803     -36112.163951243536
0.0017763645932094008     -37050.145474718585
0.0018503686462258973     -37737.486186077746
0.0020785638238240978     -39856.935450080186
0.0023743445169746025     -42604.110824258474
0.002437943986620006      -43194.81502120789
0.0024689249735883045     -43482.562688442355
0.0025061120247666935     -43827.95153092363
0.0026227953297652817     -45535.84011325246
0.002674532800547081      -46164.91204463603
0.0027078804362232756     -48027.31935902334
0.002791498736730791      -49474.84851520454
0.0028639343887073565     -50728.79313673684
0.0028837006708053448     -51070.97026151106
0.0029217572507098666     -51729.77352182595
0.0029380183065979004     -52011.271140951896
0.0030262996197729652     -53596.648253208
0.003095005435828968      -54837.59369155191
0.0031489335643106746     -55811.62862599247
0.0031828342620507937     -56423.93364807361
0.0032249378033148983     -57184.39616011549
0.0033675521976621603     -58105.03409219123
0.003419711035937745      -58776.261456971464
0.0034334607313328824     -58953.20504144789
0.0034727198522270797     -59458.42711181217
0.0035761123559103773     -63539.16874830486
0.0037457926196955427     -66084.07048821164
0.0039323431910254225     -66663.2281913567
0.003961914367777375      -67303.72794975928
0.003970972743342127      -67517.6956291874
0.003996200867783628      -68113.60857235343
0.004051006531023527      -70699.2505336008
0.00406618134519654       -70935.54608982248
0.0040952038268646795     -71387.4714557954
0.004292141547981521      -74454.09934472956
0.004308053426855585      -74701.87214947148
0.004330795822895972      -77351.60400105128
0.004355196746484324      -77938.98539639986
0.00437015000932961       -78298.9417875289
0.00437855847583668       -78501.35120747416
0.0043855000216359566     -78216.51557564503
0.004409260715293906      -78589.53031511628
0.004424338876869438      -78826.23958769697
0.004463625481733402      -79442.99273846729
0.004531029970544553      -80501.16335398145
0.004555445945817915      -80581.32194264923
0.004615983807207957      -81844.06002891157
0.0046493033009418205     -82539.05969997111
0.0047529460587130146     -84540.1282953932
0.004790708393436206      -85072.03371458687
0.004840545289195084      -86230.00321543682
0.004860331586928225      -209929.01729747443
0.004883711595064179      -209979.8513160909
0.004919376414832311      -209820.56097555376
0.0049655513770185955     -210575.960792455
0.004980840503215678      -210525.8887006903
0.004997122975974211      -210472.5633857164
0.005003804090718544      -210450.68264601548
0.005019247927171122      -210373.1537363523
0.005056661962329345      -210248.75493745407
0.00505927200826406       -210088.44057465112
0.005103233477249169      -209970.66714210878
0.005137759460863477      -209948.84279205583
0.005160884175512859      -209939.35758800493
0.0051826531963183875     -209930.42845709535
0.00520702359707359       -209924.71394862217
0.005225765901508694      -209922.4034439618
0.005279631289283326      -209915.76305297005
0.005288665786654656      -209920.17178708332
0.00529488279212087       -209919.63033999316
0.005345551869494036      -209915.21750415824
0.005348298325767775      -209914.9783117115
0.0053742292830250005     -209910.50804905622
0.005400565687851967      -209910.46430456243
0.005434296786892556      -209910.40827755874
0.005461160466877502      -209910.3636572656
0.0054973594454217345     -209910.33262761973
0.005498272959850947      -209910.3250631675
0.005540454164118858      -209911.26222883066
0.005562639346585741      -209911.44872474892
0.005578742934104319      -209911.58409678552
0.005589518792433967      -209911.67468218342
0.005643885125663051      -209911.91601647914
0.00566632455101712       -209912.09309301875
0.005673595010249333      -209912.15046649176
0.005675223457090928      -209911.81739971292
0.0057165819847817545     -209911.9510104166
0.005743852887644341      -209912.03911037603
0.005747862279682048      -209911.97749970783
0.005785073626338511      -209912.40353080805
0.0058458379333437005     -209912.60239855223
0.005850153208127873      -209912.61652146443
0.0058530756212336055     -209912.6260858574
0.0058567960034596744     -209912.6382618216
0.005873741645713748      -209912.50478653295
0.005879321825708939      -209912.5323115465
0.0058846072427580776     -209912.29633119213
0.005930770197703162      -209912.36888176453
0.005965745282718427      -209912.3877295326
0.005980743374033982      -209912.32452801475
0.0059816529555842815     -209912.32578455436
0.005982366785088011      -209912.32677067455
0.005994277988106811      -209912.34322540462
0.006031575638199005      -209912.40512283827
0.006058399566929439      -209912.34692002804
0.0060942789373257256     -209912.3191263924
0.006145627127080111      -209912.27934997308
0.006161266383710062      -209912.2672351624
0.006184813388660615      -209912.24899468356
0.006207814500617248      -209912.2896125319
0.006294817332816116      -209912.11611206504
0.006319268165554392      -209912.11704812793
0.006399472531086525      -209912.02752483124
0.006402305554435772      -209911.68028738198
0.006405484996410582      -209911.68206490323
0.006504071200671202      -209911.7371811788
0.006506994313258074      -209911.7271619224
0.006550059629747196      -209911.82362168448
0.0065811753775477655     -209911.89331622983
0.006588258403992909      -209912.16308940412
0.006616073407077483      -209912.12776743335
0.006657470102366503      -209912.07519821788
0.006678265018063234      -209912.04879098025
0.0066915100637388045     -209912.23483164402
0.006755991841506548      -209912.1797523119
0.006758379424338656      -209912.3286935529
0.006819593009015801      -209912.26443785502
0.0069098708250525664     -209912.01912303703
0.006924678490106028      -209912.0209886897
0.007048904947542622      -209912.03664027003
0.00717582218941315       -209912.05263086862
0.00717834595954181       -209912.05294884427
0.007190678594882538      -209912.05450266157
0.0073060581922159695     -209912.07448275783
0.007319553130469724      -209912.14100184714
0.007425009817322525      -209912.12190843147
0.007428812220448         -209912.1210477443
0.007483515062945756      -209912.1690665981
0.007520135781592607      -209912.18250816758
0.007593183424738025      -209912.11914262036
0.007616195710947293      -209912.12094251087
0.007640551267217521      -209912.12284746417
0.00793054947043048       -209912.17370893562
0.007957615735900037      -209912.17950827358
0.007996695862055647      -209912.1831701883
0.008007118033432903      -209912.18479236023
0.00804197724945821       -209912.16820282015
0.008048100797119151      -209912.16985728516
0.008051140363624754      -209912.17067851778
0.008061582966971015      -209912.1734999087
0.008078500497789465      -209912.17807070084
0.008183469615294259      -209912.27196201403
0.008263148613042668      -209912.24208174722
0.008332041492453257      -209912.22218108378
0.008581408282516634      -209912.15014802926
0.008615624322102722      -209912.14026425197
0.008620673300247628      -209912.13880578452
0.008777197681855142      -209912.1611192698
0.008817087065623008      -209912.10973912088
0.008857040492607604      -209912.12498020072
0.008880767817672108      -209912.0574382352
0.00888747593804573       -209912.08427155824
0.00889381071090889       -209912.08917717583
0.008936021384933877      -209912.1295350246
0.00900877416819279       -209912.13352374244
0.009058787697617367      -209912.17976641143
0.00906879277290007       -209912.18901713565
0.009113204187788604      -209912.2300800716
0.009178153119137722      -209912.29013206123
0.00929549483634462       -209912.3986265869
0.009308865106878006      -209912.5249529595
0.00935977822186973       -209912.33874697005
0.00938139215753342       -209912.35468940862
0.009488046224204847      -209912.43335744936
0.009524521897749327      -209912.49678899156
0.009538624536121088      -209912.5177622568
0.009658152840480216      -209912.69552324084
0.009683109319321037      -209912.86398153228
0.009710658500740486      -209912.80915503006
0.009758493077105301      -209912.85882465856
0.009769028727987683      -209912.85619125643
0.00977760349261958       -209912.7361392642
0.009859374139232102      -209912.889853577
0.009887083692224463      -209912.9419426216
0.009891039019423786      -209912.94937793555
0.009940356119751748      -209913.04208533742
0.010016316033687245      -209913.1591053164
0.010041569929246874      -209913.22161362247
0.010047054404494828      -209913.22988093668
0.010109003325878385      -209913.61817497358
0.010114138525128213      -209913.65036225403
0.010126588101983636      -209913.7283958393
0.010177320752588148      -209914.04638661808
0.010186067242748509      -209914.1012093652
0.010238832596959568      -209914.43194106995
0.010243754763979096      -209914.43215364072
0.010246965315960034      -209914.4529328283
0.010306197092726954      -209914.80323972227
0.010326758260866153      -209914.28213841276
0.010328463801094756      -209914.05333027797
0.010335352127360364      -209915.93608025508
0.0103833905324755        -209915.88906584936
0.010496468309832974      -209915.77839847095
0.010502861984823086      -209915.1451148988
0.010559538684012049      -209915.65149730252
0.01060291751564235       -209916.03906886623
0.01061013141206657       -209918.68741135742
0.01067909206364992       -209919.5392020645
0.010703758455766987      -209919.7783703061
0.010710660969653228      -209920.91522191442
0.010713779692094194      -209921.11372285662
0.010717444966564349      -209921.34701083065
0.010756879350402926      -209919.028041191
0.010763673398752394      -209919.4293229141
0.010793863660535809      -209922.93316274392
0.0108679381702812        -209925.13654081305
0.010898227317902576      -209926.03750450094
0.010901528604428279      -209919.362016886
0.01090254127482293       -209919.47628661478
0.010908216929880867      -209920.11672754097
0.010916265806470316      -209920.63514716364
0.010923354940751253      -209905.9902767483
0.011097708593965633      -210061.71957790968
0.011102060516218653      -210057.97306704207
0.01115196041547839       -210015.13684093568
0.011157414173069036      -210010.46865799034
0.01115946750815766       -210010.7775841991
0.01118723203901961       -209968.11498402758
0.011220173618425863      -209917.74595181155
0.011253426306010445      -86838.68760281373
0.011283141297361963      -86145.86714322754
0.011299365974762221      -85771.19944174995
0.011330421089678522      -84565.75381289987
0.011367062075970933      -84021.39953192473
0.011439790482007606      -82949.48751841891
0.011561153426340455      -81185.94091126323
0.011597430918629744      -80664.84400997456
0.011608911227538375      -78518.63327884395
0.011619532355242148      -78249.40117539163
0.011633724479444885      -77884.83277930785
0.011641817724126646      -77674.46402139304
0.01165791162302554       -80321.7614214037
0.011659596407530781      -80272.13197528137
0.011668346661188433      -80354.54491782893
0.011681490640220725      -79939.10833632
0.011683827392568347      -79865.25152288911
0.01189411668270224       -73218.72054421395
0.011897267177129134      -73119.14410457136
0.012029589119348925      -68936.89646103991
0.012030786646122671      -70453.67746415018
0.012043288175903388      -70098.41013384702
0.012057417312862915      -71790.97456037387
0.01218989047238006       -68683.27976289924
0.012347863401441117      -64084.90178133908
0.01237034926856917       -63653.83334935858
0.012444586733639575      -62941.37028801028
0.012480436367119374      -62366.50173599669
0.012691389482976989      -58983.752723397716
0.012701552041339825      -58820.790521452494
0.012808604519747524      -56982.09802342611
0.013120966104268605      -51833.37013341896
0.013129554633483753      -51691.803429652085
0.013243956891825892      -49806.08467486642
0.013355774255286557      -48329.530494753155
0.013455406172801165      -46679.22541165279
0.013737020101906694      -41677.215910548104
0.013776939708624257      -41395.28068477925
0.013834392350048795      -40794.075678558234
0.013897284935050491      -40135.94515540663
0.013955231418354641      -39529.572410976965
0.014028051877800207      -38767.5530557576
0.014074928601983004      -38277.01823342161
0.014116266188040518      -37787.486198644845
0.014272512873307885      -36457.091999104035
0.014443055832632721      -34481.983310179596
0.014512754768626568      -33999.78815103959
0.014798004888782135      -31465.79239037617
0.014936884060826161      -30559.525287619603
0.015004238240303502      -30120.000222809067
0.015166668864442068      -29060.04624288242
0.015179494078772837      -28976.35428488233
0.01521204580786284       -28763.935383056265
0.015319818789283124      -27345.529144189393
0.015516790043450968      -25537.574081326737
0.015739133225708638      -23537.286845667542
0.015900230646081148      -22053.046045922852
0.015937624121914684      -22022.58772241815
0.016010124805189378      -21241.661954380794
0.016344153373435866      -19110.488962779425
0.016411920003099656      -18817.248971514782
0.016672475100409923      -17689.774064790236
0.016832585512601916      -16996.943742469437
0.016938053552056683      -16540.562082028962
0.01720374812142489       -15390.847634267011
0.01743614742867794       -14452.442952384223
0.017533786350377056      -14033.159384220882
0.01783050617462778       -13242.098923273712
0.018124954651435488      -12457.093916018535
0.018375124788340136      -11521.577430806501
0.018549090663895207      -11075.11263356224
0.018940576627160866      -10070.405815884942
0.019056836376027064      -9792.900287590972
0.019380230874234572      -9134.182809562288
0.019545489929507776      -8797.569080156423
0.020007853055825864      -7785.578485637434
0.020126737422904384      -7569.955517590377
0.020155472726495868      -7517.837719427389
0.020209829678945024      -7319.166325794796
0.021111973410661733      -6136.957605818496
0.021245730784590577      -5961.676075547349
0.021945370765847905      -5294.544860713788
0.02196131970491577       -5277.083599904913
0.02232519193389204       -4876.01138969734
0.022342380628027847      -4860.199138990546
0.02307818075650081       -4183.320720561306
0.02309335503547838       -4196.732012823613
0.023095288721477703      -4195.43937453865
0.023113848441157495      -4183.032497607945
0.02358792744710847       -3866.1182346911673
0.023642768725860908      -3829.4577135225936
0.023908722863245302      -3651.671609601438
0.02400356317135022       -3588.2723745360163
0.02427060757618782       -3409.7574441914458
0.024786476795266132      -3136.184535659093
0.024910019178210785      -3083.9204751141992
0.025007516981767397      -3036.5598936556967
0.025357000238010574      -2879.9830317846872
0.02560233570013759       -2767.896161767025
0.025742290216277164      -2703.9548810287397
0.02576127585687593       -2695.2808760090547
0.026129174877625342      -2527.1981644399666
0.026454603523216047      -2426.7808509513898
0.026776456103934754      -2308.3181844002415
0.026898092771214133      -2263.5479858076724
0.027095228852928258      -2190.9890960788616
0.027198192931287224      -2153.0916237200945
0.027199658433027185      -2196.9929852398864
0.02724885103113639       -2158.311110199006
0.027328140317273597      -2131.994485109505
0.02733120749390605       -2130.5819928163883
0.027417552503821607      -2106.707973127868
0.02742238008866682       -2084.8971353408315
0.028017217306445463      -1937.9372492031628
0.02822693328983572       -1884.117685978457