% Model:              Example_prism.mph
% Version:            COMSOL 5.4.0.388
% Date:               Aug 21 2019, 19:52
% Dimension:          1
% Nodes:              2495
% Expressions:        1
% Description:        Line graph
% cln1x                   Height
-0.9999999999999999       0.0022236165245006307
-0.9974739665958264       0.0022383036138928125
-0.9952783445412341       0.0022511982178732536
-0.9952609370687134       0.002251294374423765
-0.9952561916830713       0.002251317656376406
-0.9952386482324738       0.0022514199708910144
-0.9951989050353357       0.002251688859402607
-0.9951626387469148       0.002251903454534288
-0.9951562732555844       0.002251941120487888
-0.9951527271603534       0.0022519428567002752
-0.9951491249217893       0.002251931839394953
-0.9947545056913326       0.002254283540231441
-0.9932304826553053       0.0022633739714169095
-0.9913630667717093       0.0022745132225352464
-0.9900397678697844       0.0022824130022212077
-0.9900174900520693       0.0022825312563654813
-0.9900081700053575       0.002282664914609949
-0.9900001218764805       0.0022827131443315762
-0.9899769605713381       0.0022827919114400477
-0.9899503301647146       0.002282953618063386
-0.989900803208998        0.0022832402008910453
-0.9881938380431607       0.0022936014305668813
-0.9854846781736707       0.0023100774059255148
-0.9832891720062802       0.002323567286496166
-0.9832717654323194       0.002323667774445576
-0.9832670203030793       0.0023236921187091745
-0.9832494777579874       0.0023237991454193004
-0.9832097366320239       0.002324079979858943
-0.9831734508545984       0.002324304652788056
-0.9831670819577868       0.0023243440875112833
-0.983163533965512        0.002324345531736034
-0.9831599315050656       0.002324335034946728
-0.9827652879294249       0.002326795625670789
-0.9812411701580841       0.0023363069527253724
-0.9793736347557502       0.002347961950342492
-0.9780502489363997       0.0023562261674648123
-0.9780279675396044       0.0023563368187757778
-0.9780186459850443       0.002356518432669916
-0.9780105965540965       0.0023565688592060824
-0.9779874333396485       0.002356702455710056
-0.9779608076517547       0.002356793264756703
-0.9779112832638395       0.0023570947468389268
-0.9762044066212536       0.002367938207157873
-0.9734953895522575       0.002385179355195394
-0.971299999131094        0.0023993049389259176
-0.9712825934742235       0.002399406311051957
-0.9712778485953144       0.0023994271641984252
-0.9712298101052177       0.0023997341904880686
-0.9712205679428912       0.00239979325956267
-0.9712136666681858       0.0023999173929333015
-0.9711778904102474       0.00240014929587442
-0.9711743405168317       0.002400133896475733
-0.9711707378302876       0.0024001297398857256
-0.9694810110662392       0.0024110941019517052
-0.9688643959586303       0.0024151343258397707
-0.9673842032915354       0.002424833197291458
-0.9660649222133268       0.00243346417941926
-0.9660607300030156       0.00243348697635345
-0.9660384450265928       0.0024336017933734603
-0.9660291219642455       0.0024337887356175765
-0.9660210712312799       0.002433841602932463
-0.9659979061078753       0.002433988649870876
-0.9659712851387278       0.0024340803934049843
-0.9659217633185307       0.002434397128456531
-0.9642149751739826       0.0024457497949131528
-0.9615061009251558       0.002463801828926974
-0.9593108262461949       0.002478592512321614
-0.9592934215069437       0.002478699661177499
-0.9592886768781919       0.002478719967369093
-0.9592406409206651       0.0024790414239442803
-0.9592313992455983       0.0024791032692719414
-0.9592279777664516       0.002479222688988732
-0.9591918161714788       0.002479467951260375
-0.9591851470609044       0.0024795131838372614
-0.958786851020972        0.0024821242241014328
-0.957262541860133        0.0024925540309468338
-0.9553947718430635       0.0025053344574555935
-0.9540712110696311       0.0025143602546031213
-0.9540489225135639       0.002514517281823674
-0.9540395979434311       0.002514580759147875
-0.9540315459084493       0.002514773200278016
-0.9540083788760991       0.002514922509384475
-0.9539817626256983       0.002515019240652987
-0.9539322433732176       0.002515353090975468
-0.9522255437259995       0.0025272443143571775
-0.9495168122978913       0.002546151078664057
-0.9473216533610179       0.002561648619601531
-0.9473042495394015       0.002561759043988951
-0.9472995051608023       0.002561781187017677
-0.947251471735887        0.0025621179475990873
-0.947242230548072        0.002562182737275788
-0.9472353218809663       0.00256232336461868
-0.9471995073007047       0.0025625780999484057
-0.9471959536047699       0.0025625570272429345
-0.947192350465787        0.002562518700026772
-0.9467976325564575       0.0025653459840499007
-0.9452732276866131       0.00257627705827643
-0.9434053403950354       0.00258967169111431
-0.9420816921362467       0.002599130870935403
-0.9420594000005348       0.002599292063957886
-0.9420500739226162       0.0025993585603453578
-0.9420420205856183       0.002599565568186368
-0.9420188516443231       0.0025997201810262446
-0.9419922401126691       0.0025998183635938467
-0.941942723427905        0.002600166439557295
-0.9402361122780047       0.0026126294303664764
-0.9375275236706221       0.0026324476544901105
-0.935332480475833        0.0026486934434229227
-0.9353150775718514       0.0026488095691102505
-0.9353103334434045       0.002648831906045552
-0.9352623025511024       0.002649184882995446
-0.9352530618505389       0.0026492527925522785
-0.9352461494872303       0.002649402760754707
-0.9352103157458254       0.0026496700307383943
-0.9352067601486292       0.002649643626168782
-0.9352031567834249       0.0026496038964712375
-0.9348084140919157       0.002652568090104337
-0.9332839135130314       0.0026640288466076587
-0.931415908947033        0.0026780725073818935
-0.9300921732028621       0.0026879913323358305
-0.9300698774875054       0.0026881578505911436
-0.9300605499018015       0.002688227496652804
-0.9300524952627875       0.0026884513091881734
-0.930029324412547        0.002688607616663153
-0.9300027175996397       0.0026887105357129865
-0.9299532034825915       0.0026890753639369123
-0.9282466808299836       0.002702143614659005
-0.9255382350433528       0.002722908879737078
-0.9233433075906479       0.002739951463232609
-0.9233259056043012       0.002740079164424667
-0.9233211617260069       0.002740110113142556
-0.9233036238043628       0.002740245159771707
-0.9232638931530058       0.0027405510965015398
-0.9232275101520317       0.0027408851791734944
-0.9232211241909463       0.00274093512430519
-0.9232175666924889       0.0027409360062662443
-0.9232139631010631       0.002740921894260375
-0.9228191956273734       0.0027440310499709892
-0.9212945993394379       0.002756051530680785
-0.9194264774990217       0.002770781031982876
-0.9181026542694779       0.002781182725242268
-0.918080354974476        0.0027814030879633076
-0.9180629699399566       0.0027815355026084617
-0.9180571248743314       0.002781697455820688
-0.9180397971807709       0.002781872900700184
-0.9180131950866104       0.0027819688337368067
-0.9179800813965135       0.002782246433878907
-0.9162572493819776       0.002796028689423095
-0.9146611521642635       0.0028088095278741895
-0.9113413914818548       0.0028358120001667365
-0.9113319900086089       0.0028358729813269022
-0.9113144530117677       0.0028360147276385414
-0.9112747244554726       0.0028363876381409118
-0.9112383220100512       0.002836686421279137
-0.911231932636067        0.0028367312162731664
-0.9112283732363484       0.002836737073984391
-0.9112247694187011       0.0028367231222223674
-0.9108299771628239       0.002839985983145531
-0.9093052851658321       0.0028526042939316766
-0.9074370460510207       0.002868066328061438
-0.9061131353360936       0.0028790334089412502
-0.9060908324614467       0.002879207451336227
-0.9060734446171261       0.0028794756095701945
-0.9060675990699908       0.0028795608170923783
-0.9060502699489951       0.0028795773349934136
-0.9060236725735817       0.0028798185046113645
-0.9059905606007923       0.0028800965856287347
-0.9042678179339672       0.00289456011171393
-0.9026718048854887       0.0029080010936752324
-0.8993522192686758       0.0029363220111906963
-0.8993428182912109       0.0029363937166959624
-0.8993252822191731       0.0029365425338366297
-0.8992855557579396       0.002936932721734352
-0.8992491338680703       0.0029372466157443463
-0.8992427410811878       0.002937296505485148
-0.8992391797802077       0.002937300874677124
-0.899235575736339        0.0029372855456135474
-0.8988407586982808       0.0029407117771600277
-0.897315970992242        0.0029539636501370032
-0.8954476146030116       0.0029702020041004634
-0.8941236164027091       0.002981719916008897
-0.8941013099484173       0.002981904873529345
-0.894083919294295        0.0029821874499933974
-0.8940780732656501       0.0029822723369674056
-0.8940607427172189       0.0029822975338354455
-0.8940341500605522       0.002982533109968174
-0.8940010398050702       0.002982837650840343
-0.8922783864859561       0.00299802987809235
-0.8906824576067138       0.003012178417950414
-0.8906751395812875       0.003012243680374705
-0.8906620887460616       0.003012360068233317
-0.8873536465738132       0.003041993484611464
-0.8873057612373609       0.003042422628886568
-0.8872963870604065       0.0030425940791294725
-0.8872894599122859       0.00304265684103293
-0.8872535495263085       0.0030429821993297537
-0.8872499863240674       0.003042976748911757
-0.8872463820539773       0.0030429481191031334
-0.8855559125757044       0.003058255270395345
-0.8849390264364747       0.0030639100543168973
-0.8834581831550103       0.003077484686288142
-0.8821382916194561       0.0030895669030353077
-0.8821340974693249       0.0030895940691323264
-0.8821115294427405       0.003089751116145179
-0.8821022271295078       0.00309003260280492
-0.8820941944973475       0.0030901064028622948
-0.8820709954124603       0.003090204412452253
-0.8820444548664882       0.003090451526061045
-0.8820110674920107       0.0030907739372067074
-0.8801808733553786       0.00310773937421873
-0.8786780832265118       0.0031217448547012396
-0.8786715599013635       0.0031218059938796
-0.8786599470588565       0.003121856324169765
-0.8753293402528186       0.003153277900749478
-0.8752875376997504       0.0031536717622345665
-0.8752770081349005       0.00315386310416146
-0.875269303651242        0.0031539364659270634
-0.8752383051197682       0.003154231632730507
-0.875234258874804        0.003154229429365533
-0.8752301614169153       0.00315415050089936
-0.8747861955598197       0.0031584079113915545
-0.8731582234081725       0.0031740396220292103
-0.8715373018211112       0.003189604085982961
-0.8701445785359407       0.003202986512741951
-0.870122008870282        0.0032031550481445544
-0.8701129227979728       0.003203439254280061
-0.870104671137649        0.003203519193084738
-0.8700814701509135       0.003203628027230776
-0.8700549342940297       0.0032038878330760317
-0.8700215498756211       0.003204233306285623
-0.868191517781665        0.003222067385851399
-0.8666888635096353       0.0032367925498072827
-0.8666823407742157       0.0032368568671034053
-0.8666707289815454       0.00323697136495947
-0.8633404232725627       0.003269958156443866
-0.8632986244985726       0.0032703724074546942
-0.8632880958856279       0.003270568666553515
-0.863280386744465        0.0032706458666289986
-0.863249369473797        0.003270956476641728
-0.8632453207828021       0.0032709589042993347
-0.863241222862205        0.003270874452815754
-0.862797206869936        0.0032753524897092866
-0.8611690508783112       0.003291795873901442
-0.8595479462474079       0.0033081685028210927
-0.8581550596025562       0.003322185747263192
-0.8581324882978233       0.0033224293878164847
-0.8581234012289416       0.003322520744191075
-0.8581151477779501       0.0033228106303117666
-0.8580919448893672       0.0033229336978395653
-0.8580654137215711       0.003323206997368383
-0.858032032259231        0.003323568225821755
-0.856202162207965        0.003342324807039158
-0.8546996437927582       0.0033577809766531237
-0.8513623137513598       0.003392579461491584
-0.8513515062923063       0.0033926817266489344
-0.8513361766804909       0.003392840742180691
-0.8512991836363553       0.003393296770003766
-0.8512676863439628       0.003393628741373711
-0.8512604338278258       0.003393705180595661
-0.8512563826908          0.003393740261871783
-0.8512522843074942       0.0033936886842515566
-0.8508082181800396       0.0033984023883743874
-0.8491798783483964       0.003415711995952905
-0.8475585906736895       0.0034329471052623535
-0.8461655406691717       0.0034477657544675325
-0.8461429677253652       0.0034479534245013465
-0.8461338796599109       0.0034480495968664563
-0.8461256244182513       0.0034483642752832556
-0.8461024196278208       0.003448603736304255
-0.8460758931491124       0.00344876963104653
-0.8460425146428413       0.0034491504584238594
-0.8442128066342638       0.0034688976240884704
-0.8427104240758817       0.003485171125480813
-0.8393733957938991       0.003521805899991904
-0.8393625893120501       0.0035219128682702204
-0.8393472610863292       0.0035220803014093583
-0.8393102713870826       0.003522484347158731
-0.8392787550769795       0.0035229169829220854
-0.8392714981818549       0.0035229976037652266
-0.8392674445987981       0.0035230340666051814
-0.8392633457527838       0.0035229750080878995
-0.8388192294901512       0.0035279415727183226
-0.8371907058185228       0.003546180056799411
-0.8355692350999863       0.003564340035518013
-0.8341760217357876       0.003579881488198591
-0.834160126710997        0.0035801586445428765
-0.834127458854039        0.0035805076462915426
-0.8341271074667856       0.0035805115666307933
-0.8341269441136877       0.0035806999752391578
-0.8341267943140278       0.003580610963014916
-0.8340967214123671       0.00358089809793617
-0.834096431506123        0.003580815457911022
-0.8302403380300567       0.0036249143197861905
-0.8296890029047341       0.003631226800125957
-0.8296600621640727       0.0036316357276216195
-0.8262602144713656       0.003671136686464467
-0.825262200236061        0.003682739331112054
-0.8252207192750813       0.0036832207468054405
-0.82519492346964         0.003683651522872559
-0.8251653473677365       0.003684135709133453
-0.8251580668165037       0.0036841749010307185
-0.8250939004266097       0.0036846953906065076
-0.8248580075884704       0.0036875050458646964
-0.8207049372351947       0.0037370456653083384
-0.8206766299963528       0.003737385244719286
-0.8200153287022992       0.0037452540223095647
-0.8163032030157265       0.003790396776571405
-0.8162382018746837       0.003791186093585703
-0.8162379267085291       0.003791137986411683
-0.8162377712005018       0.0037912832659958585
-0.8162374999906084       0.0037911795666933927
-0.8161398672266632       0.003792399551280885
-0.8130125222554425       0.0038308773588458726
-0.8105953820509234       0.003861154490227914
-0.8105654655240395       0.00386153362391315
-0.8100696432310248       0.0038677334843005605
-0.8097760963785722       0.003871454663007538
-0.809600733038588        0.0038737065063819565
-0.8087771055849629       0.0038840498461782036
-0.8082564441409318       0.0038906362169468644
-0.8062521559518816       0.003916222706272784
-0.806149639755569        0.0039175326185705624
-0.8056249722443201       0.003924212432930525
-0.8054668181498468       0.003926394632253328
-0.804695800396402        0.0039362999532208
-0.8044373604892663       0.003939620682572231
-0.8034053319787002       0.003952898555106092
-0.802054742417152        0.0039704115327183495
-0.8014908006682369       0.003977785326744938
-0.8010680911548292       0.003983324461142554
-0.8010040619296463       0.003984163495542606
-0.7995121077676446       0.004003898152848966
-0.7989740497087762       0.004011004335538714
-0.7987086196407481       0.004014475048302637
-0.7986963656588387       0.004014668271849767
-0.7986673239792257       0.004014964666741222
-0.7979898697465999       0.00402399289398455
-0.795799357570413        0.00405318275370097
-0.7922774073824171       0.0041008494532619386
-0.7922771754578286       0.0041008026470529604
-0.7922771412946346       0.004100803107336157
-0.7922771253395441       0.004100790817130864
-0.792222511230045        0.004101752529951991
-0.7922224716274824       0.004101753065616726
-0.79222244944308         0.004101766779183381
-0.7921677999884184       0.004102512068792042
-0.7921677913998902       0.004102378871059143
-0.7921676031490684       0.004102381455564751
-0.7896223822985106       0.004137335550151656
-0.7881395347204981       0.004157878545095628
-0.787953834419577        0.0041605350261962205
-0.7875234435216792       0.004166556742408655
-0.7867420088668016       0.004177488735883372
-0.786707785832643        0.004177931161308951
-0.7866786616400521       0.004178215225183897
-0.7859997716614996       0.004187772717115735
-0.7838097739294385       0.00421858886908869
-0.780286521644564        0.004269014308170995
-0.7802863008448495       0.004268961301750716
-0.7802316686556869       0.004269738567073524
-0.7802316359765176       0.004269972108457858
-0.780231550396093        0.004270035401315339
-0.7801768820842085       0.004270821627469178
-0.7801768696172803       0.00427082180676582
-0.7801767120614758       0.00427059972391723
-0.7798954316763762       0.004274696411520372
-0.7769915159353923       0.00431687593281721
-0.7760528391034625       0.004330693499384961
-0.7759596576696203       0.004332065165873522
-0.7755258872945335       0.0043385425402177455
-0.7747293534864012       0.004350289121513167
-0.7746999970853524       0.004350644841775228
-0.7742610414874904       0.004357149418454101
-0.7727957678697952       0.004378905824097543
-0.7723526261011715       0.004385509139325551
-0.7717045415527479       0.004395184234759283
-0.768213140057534        0.004447925148842028
-0.7681998252057518       0.004448137097617763
-0.7681991417415915       0.004448077362892448
-0.7681616670476127       0.0044487094864255035
-0.7681586819994842       0.004448966014437656
-0.7681584661264448       0.004448958071134723
-0.7681246768523696       0.0044495301183805425
-0.7681244534583264       0.004449533530726106
-0.7681148950886644       0.0044493701057254365
-0.7637157654405508       0.004517371325050459
-0.7636581152185401       0.004518184760442431
-0.7636486171760014       0.004518334034053246
-0.7592564848608856       0.004587300622657187
-0.7592563022295892       0.004587422949866194
-0.7592561353807254       0.00458746910609997
-0.7592221118256706       0.004588198419010736
-0.7592037569039128       0.004588489138660574
-0.7591841466977417       0.004588671866018352
-0.7566910096599715       0.004628608403661014
-0.7547656084800513       0.004659574763404337
-0.7547520044808417       0.004660010401503657
-0.7547344327690367       0.004660130269610451
-0.7544960616760896       0.004664036127652544
-0.7503565116334502       0.004731867870389794
-0.7503372690161212       0.004732181702953122
-0.7503223561020325       0.0047324257907404394
-0.7502815617514871       0.004733441462020526
-0.7502522154814382       0.0047336144986739786
-0.7502300193502922       0.004733990376307025
-0.7456010678826206       0.004811931162831081
-0.7450556079949582       0.0048211903579568685
-0.7447889415810569       0.0048256813836251656
-0.7447762145748323       0.004825927096787718
-0.7447460606853502       0.004826309950719281
-0.744079078963062        0.0048377478822423025
-0.7419102467008352       0.0048749416899459014
-0.7384681385835725       0.0049349260215548725
-0.7384486506939156       0.004935247609203123
-0.7383536382941772       0.004936820983593986
-0.7383531876878516       0.004937220585694513
-0.7383525754860527       0.004937231281851424
-0.7383039376382097       0.004937980587707014
-0.7382765976074853       0.004938382430168157
-0.738233669165758        0.004939066403699391
-0.7382260193892577       0.004939201675266363
-0.7359743389486433       0.0049790206676195254
-0.7358789065540947       0.004980743056952784
-0.7344981607181881       0.005005442939366124
-0.7336171204727011       0.005021265166257535
-0.7335973345651193       0.00502161919128033
-0.7317063453142545       0.0050557327226896254
-0.7316745994564784       0.0050563069923723804
-0.7313362849431677       0.0050625096757294695
-0.7305678069936206       0.005076445579429625
-0.7298425707574488       0.005089622479287319
-0.7297930185268788       0.005090442944881753
-0.7277232040860174       0.00512879390259541
-0.7263933197250234       0.005153478946772023
-0.7263642371400973       0.005154055270241761
-0.7263460839797976       0.005154390546803191
-0.7263138640785242       0.0051551089808740975
-0.7262865244497062       0.005155483616899872
-0.7262359470614416       0.0051561088110376
-0.7236676996229856       0.005204592425184256
-0.7224998981567923       0.00522652161056642
-0.721608355795119        0.005243656963855848
-0.7197175465489543       0.00527984926712662
-0.7196858033345533       0.005280457981898925
-0.7193474014227424       0.005287057648707955
-0.7185787315235155       0.005301820583108432
-0.7178532985622139       0.005315968322984662
-0.717803734245599        0.005316727121501668
-0.7157334024709997       0.0053573610399561605
-0.7144950971816282       0.005381666436931467
-0.7144413173064973       0.005382734211663103
-0.7144031381138349       0.005383482194380321
-0.7143740547244465       0.005384067671549788
-0.7143559013952947       0.005384571478789811
-0.7143236811969558       0.005385288834825208
-0.714296350560303        0.005385752382615481
-0.7142534373195099       0.005386478319738485
-0.7142457898097582       0.005386630195921692
-0.7114281854795185       0.0054426316729973955
-0.7109429052075942       0.005452538864316007
-0.7105993765551103       0.0054594268198332055
-0.7105197273481533       0.0054610303243806365
-0.7096391085144039       0.005478868130236738
-0.7096193330429021       0.005479262759637755
-0.7077287345740906       0.005517629362730289
-0.7076969948875252       0.0055182746685730096
-0.7073585056948437       0.005525316366183364
-0.7065896377264453       0.005540999866069767
-0.7058640173939409       0.005555829602254406
-0.7058144403139883       0.005557054097592071
-0.7037435750519149       0.005599977201688621
-0.7025049365602773       0.005625789040864425
-0.7024511421834604       0.0056269232176717155
-0.7024129527231204       0.005627717557421358
-0.7023838687453868       0.005628330533779655
-0.7023657154114249       0.005628860447385917
-0.7023334952046276       0.005629644574639263
-0.70230617380455         0.005630123379028866
-0.702263275066937        0.005630904411605557
-0.7022556301414291       0.005631065606420329
-0.6994387174681636       0.005690512847374775
-0.6989535563194634       0.005701041129261643
-0.6986101119900405       0.005708386400207174
-0.6985304823307449       0.005710092367608674
-0.6976500796633992       0.00572893315928068
-0.697630309047012        0.005729402853022031
-0.6957399222240539       0.005770203721639318
-0.6957081860903304       0.005770889747258495
-0.6953696096199464       0.00577833716991251
-0.694600543408199        0.005794995767562762
-0.6938747359705915       0.005810764878605228
-0.693825146108022        0.005812067011703416
-0.6917537468980387       0.005857685452099017
-0.6905147757651394       0.0058851231367754156
-0.6904609669407555       0.005886314777039716
-0.6904227672246432       0.0058871745818856605
-0.6903936826647457       0.005887820886116092
-0.6903755293306462       0.005888380937699542
-0.6903433091236078       0.005889228377992609
-0.6902731743980456       0.00589064330508021
-0.6902654704041944       0.005890815937919147
-0.6874492493988585       0.005954042035409309
-0.6869642073771217       0.0059651168178654025
-0.6866208473772575       0.005972920927468608
-0.6865412372701933       0.005974681802913055
-0.6856610507777658       0.005994792968306696
-0.6856412850158985       0.005995166230387875
-0.6837511098633409       0.006038610662510596
-0.6837193772831672       0.006039375244036507
-0.6833807135351665       0.006047203901616695
-0.6826114490751027       0.006064979366859629
-0.6818854545399766       0.006081986035456739
-0.6818358518942405       0.006082872179708379
-0.6797639187231954       0.006131667247415143
-0.6785246149650375       0.006160855095109771
-0.6784707916946313       0.006162141943851239
-0.6784325817230866       0.006163043352558494
-0.6784034965812019       0.006163913286671914
-0.6783853432470989       0.006164338588089691
-0.6783531230400536       0.006165062064168092
-0.6782830120514413       0.006166733935850723
-0.6782753106649901       0.006166917583849302
-0.675459781327902        0.00623415667457344
-0.6749748584332365       0.006245927120536443
-0.6746315827631164       0.006254232504913442
-0.6745519922084144       0.0062561016616778905
-0.6736720218911507       0.006277517005153158
-0.6736522609837858       0.006277914121758573
-0.6717622975023234       0.006324134757306015
-0.6717305684757195       0.006324948740756535
-0.671391817450104        0.006333339517567566
-0.6706223547415825       0.006352205381958054
-0.6698961731091542       0.006370316036238974
-0.6698465576802355       0.006371249266446847
-0.6677740905477543       0.006423205428857839
-0.6665344541647941       0.006454284514345614
-0.6664806164484095       0.006455655343676799
-0.666442396221442        0.006456607271538228
-0.6664133104975756       0.006457527712472831
-0.6663951571634724       0.006457980237542991
-0.6663629369564268       0.006458773307644775
-0.6662928497047788       0.00646055270135174
-0.6662851509257297       0.0064607481602013345
-0.663470313256898        0.006532311502032131
-0.6629855094893071       0.006544816182970083
-0.6626423181489366       0.006553640462526866
-0.6625627471466008       0.006555686436978457
-0.6616829930045076       0.006578489944207291
-0.6616632369516446       0.006578899662512722
-0.6597734851412974       0.006628070148432476
-0.6597417596682639       0.006628988143620741
-0.6594029213650333       0.006637888117518717
-0.65863326040805         0.006658032964676505
-0.6579068916783257       0.006677325032621426
-0.6578572634662245       0.006678327921483091
-0.6557842623722967       0.006733695137091592
-0.6545442933645467       0.006766817327224193
-0.6544904412021849       0.006768280042967501
-0.6544522107197949       0.006769299249344367
-0.6544231244139469       0.006770284826262711
-0.6544049710798435       0.006770767514805073
-0.654372750872798        0.006771608828304914
-0.6543026873581144       0.006773504871276318
-0.6542949911864675       0.006773713143572074
-0.6514808451858929       0.006849947357122941
-0.6509961605453767       0.006863273128595993
-0.6506530535347559       0.006872676464993664
-0.6505735020847861       0.006874862999016006
-0.6496939641178637       0.006899159001066459
-0.6496742129195026       0.006899595907669811
-0.6477846727802711       0.006951999338473856
-0.6477529508608082       0.006952977475689748
-0.647414025279963        0.006962516117182433
-0.6466441660745175       0.0069839519955491435
-0.6459176102474975       0.007004522285339739
-0.6458679692522133       0.0070056232121839595
-0.6437944341968377       0.007064652417191844
-0.6425541325643          0.007099966004497714
-0.6425002659559607       0.007101527100279642
-0.6424620252181479       0.007102613836663624
-0.6424329383303183       0.007103688718478451
-0.642414784996215        0.007104203233824648
-0.6423825647891693       0.007105132212705779
-0.6423125250114504       0.007107153296396427
-0.6423048314472055       0.0071073753039069395
-0.6394913771148881       0.00718865087781822
-0.6390068116014462       0.0072029026026915535
-0.6386637889205753       0.007212953498860144
-0.6385842570229716       0.007215219728486606
-0.6377049352312201       0.007241133309411729
-0.6376851888873607       0.007241606835522317
-0.6357958604192446       0.007297578249920516
-0.6357641420533524       0.0072985644049932165
-0.635425129194892        0.007308746587455701
-0.6346550717409841       0.007331618487815775
-0.6339283288166688       0.00735353878212926
-0.6338786750382019       0.007354744686871041
-0.6318046060213781       0.007417790594874469
-0.6305639717640524       0.007455502221532578
-0.6305100907097356       0.007457171040244177
-0.6304718397165002       0.0074583343610336575
-0.6304427522466892       0.007459474662935024
-0.6304245989125858       0.007460023839669969
-0.6303923787055401       0.007460983413067329
-0.6303223626647858       0.007463141125837115
-0.6303146717079431       0.007463378141499514
-0.6275019090438829       0.007550173842819768
-0.6270174626575158       0.007565365552784818
-0.6266745243063944       0.007576065643151795
-0.6265950119611567       0.007578527454942542
-0.6257159063445763       0.007606203158536976
-0.6256961648552186       0.007606697011608335
-0.6238070480582184       0.007666411852820918
-0.6237753332458965       0.007667414385276454
-0.6234362331098215       0.007678405729361023
-0.6226659774074514       0.007702851198143181
-0.6219390473858404       0.007726332564949584
-0.6218893808241905       0.0077275739879229845
-0.619814777845919        0.007794906742767167
-0.6185738109638049       0.007835189895545097
-0.618519915463511        0.007836972946339444
-0.6184816542148532       0.007838235830819516
-0.6184525661630605       0.007839466565720857
-0.6184344128289572       0.007840053221385763
-0.6184021926219115       0.007841397610437766
-0.6183322003181219       0.0078435074405527
-0.6183245119686811       0.007843760330453982
-0.6155124409728776       0.007936366821306684
-0.6150281137135851       0.00795265325289983