% Model:              Validation_sphere.mph
% Version:            COMSOL 5.5.0.359
% Date:               Mar 17 2020, 12:37
% Dimension:          1
% Nodes:              512
% Expressions:        1
% Description:        Line graph
% cln1x                   Height
-10                       -367.86644054746284
-9.996508891914392        -367.79714948311084
-9.990487949096352        -368.09113164063456
-9.967681419034339        -369.2046969271287
-9.928435377579225        -371.12378171729506
-9.904209529835487        -372.3276469170969
-9.850008828642132        -375.0210650654508
-9.842231765474898        -375.407533923144
-9.777771371758881        -378.6107912696607
-9.722743096672586        -381.6173282250311
-9.71264182829827         -382.1019836062187
-9.660489115094308        -384.60425284248504
-9.592875138949854        -388.0561174211507
-9.582866862224941        -388.61173714088363
-9.55335420026665         -390.2501627576312
-9.519802652850498        -392.1128112318911
-9.383877373478624        -399.6588421525048
-9.382853323017205        -399.715693361326
-9.36132940302866         -400.3054163352099
-9.36040780949704         -400.36016516102245
-9.329967737884985        -402.1685092101143
-9.224356575270619        -408.58109082610554
-9.183234904687472        -410.99698954054475
-9.129072759449237        -414.17901632096743
-9.053602041303757        -419.0249288794821
-9.027928473373043        -420.4404433426753
-8.919361442730953        -426.6351828662373
-8.893537907757818        -428.1038464829835
-8.85070199163085         -432.515431186006
-8.83112259972999         -433.52411413375376
-8.743419102004134        -439.5254855203966
-8.713482214270112        -439.1896712339367
-8.692553689652069        -441.0898223211698
-8.637341009598252        -446.1027143406063
-8.614532752305506        -448.1735308785137
-8.597823512936799        -449.69060290975904
-8.440628762572256        -463.96269237947445
-8.437058632380557        -462.15769680966696
-8.360287962796951        -469.2283348432866
-8.33077135423629         -470.7243516743292
-8.268649081605888        -475.72661367265937
-8.256312049385992        -476.8868412454167
-8.255059611924047        -477.00462585119567
-8.249700304081545        -477.508638211596
-8.164452218563465        -485.5257348340783
-8.120259694339097        -489.68178988851514
-8.063649382234248        -493.55179480824154
-8.020344205476087        -498.29884805443726
-7.960332853269001        -503.1041768800733
-7.893214632594252        -510.7721715184707
-7.8629959599378          -515.3016246420739
-7.845236363500108        -517.2744017753066
-7.726715295811198        -530.4399966674973
-7.637476306979741        -540.3528703738757
-7.5701729962821          -546.5579581642833
-7.509866679056649        -552.0522546143256
-7.480122754861904        -554.7621189308811
-7.438752387921786        -559.9107149873416
-7.370742468599999        -566.2356356535674
-7.319198654439488        -572.92789027871
-7.277745461949939        -577.9696311565131
-7.231347762897492        -584.0987974634203
-7.183003115660467        -591.3692271779291
-7.092476153344345        -604.9833489970848
-6.947651688896675        -626.7631353826896
-6.905801903052037        -633.3285769842996
-6.811952183102805        -647.1569175521408
-6.790085829841624        -650.8037063424417
-6.740508267476727        -657.2045639302742
-6.707972364867693        -663.4389472806006
-6.654788929680429        -672.8390436135604
-6.631325706190163        -676.9861349083128
-6.538265418730573        -693.4344080184073
-6.487199466886955        -702.4602421897844
-6.419672529018255        -713.8249373726867
-6.412023286279883        -709.4357194125014
-6.31036909210161         -718.9843379779422
-6.307431129985059        -731.8308883720151
-6.279830865488282        -737.0627680753937
-6.228718029847739        -747.7329635857513
-6.106468775201794        -772.817036784485
-6.097791418302128        -774.9550755000255
-6.079339867656374        -779.5014056899945
-6.046443799000848        -787.6067618701272
-6.004229415483939        -798.0080842261214
-5.843969056714333        -837.4950911079432
-5.840804544903364        -836.9928176692702
-5.840228066047452        -837.143896936017
-5.8392672384193585       -837.3957034541672
-5.830723955379405        -839.634663173063
-5.747204330628282        -854.8355844312973
-5.680966300410075        -876.6629473004505
-5.667039771774581        -881.2521446699175
-5.6649435800436585       -877.3304820573194
-5.658367312643907        -879.9387452948322
-5.641199657122835        -886.7477392193141
-5.571594016382868        -914.3545597501688
-5.562031187048817        -918.1473459438093
-5.444114935761924        -944.014437077607
-5.40572127703453         -952.2141813514354
-5.400753160029764        -953.2752234691034
-5.279192932500758        -999.26125384427
-5.27445805867406         -1002.4235746555205
-5.238155289876638        -1016.3049875791694
-5.2185905412292914       -1024.6194851821056
-5.215202074963427        -1028.5528134663182
-5.197128617278201        -1034.2739419178106
-5.194376821926919        -1035.1450189939205
-5.180236493359331        -1039.6211207719316
-5.054018595312907        -1079.5752247492592
-5.042921039183062        -1083.0881410501818
-4.941463150290801        -1119.978843618941
-4.874010015087797        -1142.091441305398
-4.838350190291606        -1169.8003488371323
-4.803664147787455        -1184.2089912400115
-4.729714708179625        -1214.528029059893
-4.675260502449639        -1241.9151466189978
-4.65675247937532         -1251.2235443254458
-4.522525364708777        -1300.690118705781
-4.5173923447516975       -1305.1605847672254
-4.507757519629717        -1313.5517772963722
-4.4353508828133945       -1376.6123956495994
-4.429144150064317        -1382.0179830697634
-4.416204042547781        -1404.700513020991
-4.290861705485195        -1463.8446719161366
-4.210756044381913        -1485.0307809530204
-4.170762477077396        -1512.1810991180937
-4.099277408505799        -1560.7099622973728
-4.093847829031177        -1564.395925320303
-4.092448648122026        -1563.2063050580691
-4.083411797444175        -1568.1551492490125
-4.007766486079611        -1609.5807379925827
-3.950869039984653        -1683.32384523184
-3.908769235447287        -1717.3604818531603
-3.8696552871488743       -1748.9831285540513
-3.757592807710889        -1839.5828340262815
-3.6801051570968872       -1915.056595279647
-3.664233478598926        -1935.8837032892116
-3.568268385586749        -2022.9237963459163
-3.5538756597404393       -1980.197748264327
-3.5194155863027365       -2036.4004128965025
-3.5031750488334574       -2036.8968061624328
-3.4977723836743073       -2024.2445739474788
-3.3891966555205304       -2220.171281512754
-3.3528661258655172       -2301.3999384880735
-3.3084979957673655       -2344.9655258141574
-3.2690583239126574       -2383.691802186324
-3.2540317494930147       -2398.446571851935
-3.235252990712083        -2416.88565535027
-3.0939277868715305       -2555.654530569247
-3.076764838718159        -2573.9927799483894
-3.06508269018412         -2585.915262091411
-2.9177213067470786       -2693.691549795847
-2.8796337332057256       -2763.2300253361973
-2.864019972415245        -2799.640140089803
-2.8420143452877102       -2849.5031508662796
-2.7560948652839716       -3044.1898976927187
-2.698963372353833        -3173.6453424815554
-2.6981420151392292       -3175.5064729735313
-2.6757521499803096       -3221.9102392474842
-2.6601561837189998       -3256.261645516317
-2.637091677016566        -3343.8333277847414
-2.535903265203282        -3547.2184691107395
-2.4696072170628782       -3680.4711892468804
-2.4347948845187477       -3637.3628881657787
-2.32406667616348         -4001.564894233001
-2.3227910304705706       -4005.7606879452287
-2.318188069444961        -3971.079090140993
-2.3028701785145564       -4023.9198286347237
-2.2742109197593763       -4122.783073201892
-2.243538037725772        -4228.592531289141
-2.138505586367847        -4507.546059517532
-2.107885175445472        -4665.761409493716
-2.041475833880229        -5008.897797965765
-2.0384201265697763       -4694.108601449716
-1.8936529188910978       -5809.254196168024
-1.8627718825467312       -6047.13162843966
-1.8237047253375922       -6348.066964269661
-1.7535135464596312       -6888.751454693496
-1.7416438248646282       -6354.585424480041
-1.7106002523273067       -6553.301257799845
-1.6663691837662498       -6862.268687181509
-1.649196535273191        -6961.800270834792
-1.6291444883207598       -6850.440197837495
-1.6246086040436687       -9040.055268954922
-1.561397148391432        -6209.83029801229
-1.5127470730236627       -6783.395320543241
-1.4079947216410211       -8018.383844749602
-1.323028728764907        -9020.099078487008
-1.2867935203238883       -9447.297761917134
-1.2631447877489386       -9726.10690516403
-1.0815113461928973       -11867.492878586687
-1.0333023005405142       -10010.994379321579
-0.9794743972536271       -10870.626588976651
-0.9643704660493455       -12648.673729025415
-0.8709468570203338       -15028.367663851604
-0.7551181176247841       -15717.63717535873
-0.7545519119995702       -15723.060275920448
-0.7426510839241303       -15837.046051659905
-0.5867195487477019       -20093.753051647578
-0.4945854741387343       -22748.611848297733
-0.4932584647592986       -19454.686962364445
-0.48570811166718286      -19712.45364553595
-0.47538066015859565      -18994.68822026282
-0.4552375692446482       -19770.63802527229
-0.35418122856900425      -23663.518625241108
-0.3226263962785971       -24879.070204067284
-0.2901022581728174       -26131.9612687554
-0.2811713171209753       -26475.997941049023
-0.2699155346346984       -25655.521513248314
-0.19746333739357347      -31838.218889653042
-0.17720073893956112      -33567.32468728413
-0.17210473502716894      -34002.19141623122
-0.11767365212055303      -38647.05970589339
-0.11327070842695618      -39022.78424509894
-0.0986213133945828       -37495.74074667541
-0.09126524079465705      -37698.121812610654
-0.07170581350563943      -36466.402979173115
-0.04944311784889522      -39129.90698911622
-0.04654906459452238      -39415.32982798584
0.026453886373305507      -40156.72211993032
0.04900825010738965       -42314.081514443504
0.056527991518574794      -43033.35628401837
0.15755764475193246       -52696.99716953223
0.1736522609426476        -54236.471829492366
0.18366576872095308       -55194.2791670101
0.18523833661534894       -54975.76818951126
0.19455043369026015       -56059.96146887774
0.19588953030296707       -56215.870447944384
0.21160902924550484       -58046.0677677762
0.29261916830767376       -67477.95487388756
0.40000000000000063       -78350.23216836447
0.49511485161681357       -76895.83830767393
0.5426722774093324        -76921.26041227998
0.5902297032336284        -76876.11879432225
0.6282756438701842        -76866.56589032523
0.6775700776819739        -76869.42844762234
0.7597274673776706        -76872.89025735483
0.7777138407230222        -76872.47619757289
0.8046934007368467        -76872.0337351961
0.8316729608263103        -76871.59127281746
0.8644971539923337        -76872.66425790451
0.9629697333060693        -76872.7115028057
1.0286181195770467        -76873.4438778263
1.065089445247114         -76873.55839624046
1.094266505785832         -76873.59662429377
1.1380320966217974        -76873.86713236263
1.1599148920257123        -76873.959554479
1.2109747479964827        -76874.5371860346
1.2747995679541173        -76874.13450654678
1.2839173993711661        -76874.07698090596
1.3568600507455832        -76873.45678080457
1.4843593446156527        -76873.3362805254
1.6017428631442314        -76873.72999572364
1.6055795282719014        -76873.74286425393
1.6091301234351096        -76873.75477327942
1.611858638487188         -76873.70611161995
1.612781307054963         -76873.70865902313
1.6146468213112968        -76873.7138095358
1.6152254291710693        -76873.71540701884
1.615806640269021         -76873.70309479926
1.6175538611029232        -76873.70222914871
1.6228461623687378        -76873.69960710866
1.679816773777404         -76873.67138134841
1.6980883924918013        -76873.66232878048
1.7041442286674613        -76873.79009502802
1.7417996408691856        -76874.05457688188
1.7435402065943821        -76874.05919501925
1.7540038376708225        -76874.0869575374
1.7833954779286358        -76874.16494059571
1.7909652731476697        -76874.1850250746
1.855655336308553         -76874.35666329914
1.861400196127093         -76873.34527882063
1.8668572262302607        -76873.52568094598
1.8706293159515646        -76873.52639541242
1.8731837648564726        -76873.847404923
1.8771515767135794        -76873.84355609716
1.8800930297331675        -76873.78027519616
1.885166183782104         -76873.78191014458
1.948046075574517         -76873.4168410651
1.952166861828303         -76873.42633228365
1.985656574067157         -76873.50346760638
1.9923046632109624        -76873.51877984608
2.021180880758065         -76873.54257249135
2.0361435017027656        -76873.60927939264
2.038524385709785         -76873.6198939364
2.08328759691792          -76873.81945891377
2.09127579377838          -76873.85507218377
2.0916588216601255        -76873.86605768168
2.0920405327343268        -76873.86639281263
2.093260606083817         -76873.86746400048
2.0935635288661025        -76873.82531475626
2.0941629889834097        -76873.82746889291
2.0947651239500047        -76873.82963264156
2.0954358391033736        -76873.83204283028
2.097146082746269         -76873.88075867297
2.0994431426398172        -76873.88998857005
2.2026894615748347        -76874.30484624169
2.2045779702982653        -76874.3124345252
2.3137201014911657        -76874.7672968515
2.4293413448543415        -76874.55956574186
2.430179675851782         -76874.56054553407
2.504138182672225         -76874.64698394225
2.5064227212347276        -76874.64965397812
2.5387049175278236        -76874.68738353456
2.5449625882211606        -76874.65435168694
2.546639250212087         -76875.18808796501
2.560930594653634         -76875.1905036046
2.5614796070360484        -76875.19059640355
2.5640539196191594        -76875.19103153434
2.5980969345720375        -76875.1967857619
2.608069113393377         -76875.19847134198
2.6440661088848376        -76875.20455584629
2.645384711781947         -76875.19455791538
2.6481432886855423        -76875.19645996141
2.6586779286741233        -76875.23986719956
2.7114832305744954        -76875.32648869886
2.7305340894252605        -76875.35773961275
2.734876050420736         -76875.36486213937
2.7523852439427277        -76875.36351730628
2.7557554620781772        -76875.36650029896
2.7562895939950707        -76875.36697306018
2.790749494142519         -76875.39747364388
2.80250692949285          -76875.4078801925
2.805978337557013         -76875.41095274827
2.8307082292381396        -76875.32202601852
2.831155116846702         -76875.32436416968
2.8335921005405154        -76875.33711466048
2.8485773506262118        -76875.41551867011
2.8509936014353716        -76875.42816068427
2.8715492933757614        -76875.36489719618
2.8753326803286594        -76875.37023570488
2.90100461784853          -76875.40645982126
2.944522924393066         -76875.45790923841
2.9456116985631695        -76875.45981494396
2.946250530533332         -76875.4609331059
2.94638919347533          -76875.46117581183
2.9953294565250665        -76875.54683706048
3.000464411633296         -76875.48583664745
3.0179942688979806        -76875.46947790612
3.0567710487382467        -76875.07548157405
3.069630294109393         -76875.09244795906
3.0970691504426746        -76874.62130344799
3.1110365620035054        -76875.99674923439
3.124060046066937         -76877.82382151205
3.137496190527095         -76876.99428329943
3.184049930541107         -76874.12008777668
3.190719020591244         -76873.70834279736
3.2052210109889763        -76872.81299999886
3.2604243562128414        -76869.4047838659
3.26540616236176          -76868.31180211238
3.271376325019162         -76867.71091406743
3.276779631453655         -76867.1670792604
3.289788188027998         -76865.01807900937
3.314958051063865         -76861.97830146179
3.3324170493811267        -76861.16896528192
3.3364261791440426        -76848.16490186498
3.350086387261097         -76851.0617245973
3.358432835162512         -76852.83169616657
3.3933886156077477        -76860.2445187672
3.396213054652579         -76860.84347737482
3.4000691098088787        -76861.66120343997
3.410808737075239         -76865.53875192878
3.412657203400686         -76866.01404027076
3.43747510878998          -76874.83618958718
3.4500518323566567        -76877.43244660215
3.4662085246905647        -76879.71626083842
3.486531125362548         -76910.18375353316
3.4965122471714842        -76925.14737756549
3.4988914219816922        -76928.7142188523
3.5331042623452813        -76980.00585621223
3.600000000000001         -76539.08786083199
3.6853716830575887        -68420.07115460414
3.7117594934233864        -64937.52106903843
3.7152902190836414        -64471.55103288236
3.718530450874369         -64043.919132257986
3.770743366115184         -57153.08241944082
3.7725681490613088        -57395.34980543519
3.7763372825064963        -56790.39490371382
3.7962056873827006        -53601.46856453287
3.7985098221305873        -53231.64944556802
3.801349934070861         -52861.11214655475
3.8234796639852955        -50558.69683203536
3.9034747354247803        -42235.87146179471
3.914320105591377         -41107.500421579694
3.9250609319428906        -38011.747144801775
3.981985514737483         -36567.17377826653
3.9863133352945326        -37718.45629925432
4.024555794829203         -41138.752605203685
4.155407343943196         -37152.471541495994
4.1587062826509955        -37051.972181799705
4.178927881931582         -31559.97321297307
4.223071087147101         -29122.322214598622
4.24691460780756          -27805.648863423383
4.255041239055789         -27356.884649792773
4.3577690389485575        -21684.108449088195
4.401905062151194         -23326.88519691222
4.456861301111836         -21354.33690756862
4.511400768657726         -19843.09668077519
4.556222207402625         -18042.263419411713
4.563836087028273         -17736.353389259988
4.593590754441169         -21207.662337975198
4.713375056918537         -16416.22076820991
4.752610140833429         -14846.794656649217
4.790805226639128         -13318.96907261877
4.884594233841677         -9567.354390200548
4.940087786705849         -12578.143936936176
4.988043951949637         -11218.171974441706
5.037793065498841         -9807.354423831683
5.056020231765137         -10623.027164383617
5.122549472036368         -9197.215047623613
5.124669027086311         -11119.374705484559
5.126346132983748         -11403.878483072986
5.289330970797883         -9384.769748782244
5.314205464299246         -9076.616501135213
5.369666980036233         -8389.541357561102
5.408877620261279         -7903.787300819866
5.515002312571241         -6589.080386724585
5.596260004501282         -6594.346735766478
5.642219690009134         -7047.913194262517
5.7126835520387145        -6661.742837664242
5.7780067872103835        -6303.745187609278
5.804245408295232         -5754.985059053577
5.827520835760772         -5699.9988549462905
5.8549086587236765        -5635.297468656787
5.9356304415384145        -5198.266027766396
5.988939099278854         -5105.429386158474
6.113829284577527         -4777.7010509318
6.148487083520617         -4701.003354308892
6.16903943068473          -4655.521017410596
6.182156934322759         -4626.491986567267
6.196479441515439         -4594.796283289921
6.221252382030503         -4603.546816063354
6.262886938869655         -4435.756985996129
6.2795751898021095        -4368.502306214405
6.342619503549159         -4114.429836290357
6.346765147334916         -4121.382714416024
6.350816504333963         -4108.144990375629
6.40132285622839          -3943.11654464194
6.511204757920936         -3584.079735004445
6.517727465401016         -3562.766925089745
6.5420101202961405        -3483.1203127974286
6.551261251053518         -3469.293989452446
6.719716886460303         -3125.3358350538833
6.763057677133773         -3016.003766433554
6.7640224766979715        -3014.5274477943894
6.818284199724019         -2931.4971521042535
6.891095270095305         -2804.189725259028
6.930231233265303         -2758.53564714377
6.962088149754877         -2721.3729447052283
7.01844882594812          -2660.019619222061
7.1849292898727555        -2492.376105616071
7.229064214909723         -2444.7750644312036
7.254818832835181         -2350.017163151273
7.259423679475312         -2345.0330857316985
7.303695397647496         -2297.115383338958
7.384046722084272         -2210.146749407594
7.4899501125930925        -2095.5217165807476
7.538571372047181         -2018.8081718393187
7.5648129133332285        -1998.4174882255393
7.580347838129377         -1986.346256089084
7.600793619919623         -1970.4590997982923
7.644343184760803         -1936.6194183361868
7.73189828362122          -1868.5857498798377
7.772330613028685         -1806.822792188268
7.813604603080012         -1778.1370323905976
7.855547196768293         -1748.9865876107979
8.02342756490387          -1632.3083621935457
8.075648039854826         -1596.0147060895597
8.136349450322138         -1541.7116587830133
8.322103212169708         -1419.1487121474493
8.345135365666852         -1403.951773081968
8.35572540941929          -1396.9643131544326
8.361271085331541         -1393.3051981296194
8.371742349067894         -1388.8714586500573
8.37279742762394          -1386.9385063838017
8.376130249590087         -1385.672886332929
8.398176607770537         -1417.986506142537
8.563704191993299         -1272.7118136773497
8.568209436066667         -1305.2336243107093
8.574382415988971         -1301.4061373665281
8.59277158312868          -1290.0041405956053
8.605000340142908         -1282.4218370072977
8.609214645396058         -1279.8088043167081
8.609331002713514         -1284.436002374343
8.656984672799084         -1253.1587410799111
8.657223479642733         -1238.851556041198
8.74166076147787          -1207.5939731829567
8.763504900492348         -1199.6525377876478
8.804109747351056         -1184.8906482093262
8.931523162281103         -1138.5695090474046
8.959344809668337         -1128.4549508507916
8.965083971591923         -1126.3684788864648
8.987046727158216         -1118.383920451004
9.002289002587188         -1105.6905158661248
9.009206219773684         -1115.155109518295
9.15519013840482          -1044.0289653212894
9.226852251780755         -1007.45823569208
9.285615347373032         -1002.7549332338767
9.319496368558942         -992.5956525693364
9.380244431578404         -972.0673627545038
9.510871326953511         -927.9252678038611
9.528629038053356         -921.9244930995483
9.536360769929708         -913.3884911776831
9.651670763287198         -894.6872142433749
9.680429892273501         -884.3807470917927
9.728457932120318         -872.2279652944471
9.751115234551925         -865.9618741487284
9.871703681821742         -832.6119992466083
9.912600454144506         -821.301610301889
9.924976545198206         -817.8788853414226
10                        -797.1304397894855
