% Model:              Cylinder_slice_potential_6.mph
% Version:            COMSOL 6.2.0.415
% Date:               May 21 2024, 17:43
% Dimension:          1
% Nodes:              869
% Expressions:        11
% Description:        Line graph
% Arc length (m)          Magnetic scalar potential Magnetic scalar potential Magnetic scalar potential Magnetic scalar potential Magnetic scalar potential Magnetic scalar potential Magnetic scalar potential Magnetic scalar potential Magnetic scalar potential Magnetic scalar potential Magnetic scalar potential
0                         3.791556553400398E-6     -0.02417662599365898     -3.8235290675855526E-7   -0.07252382427949716     -0.0725389905057108      0.07253593168245667      -0.07252076545624307     0.07252076545624307      -0.07253593168245667     0.0725389905057108       0.07252382427949716
9.67574019264698E-5       3.7377690703726816E-6    -0.024179178943734315    -3.3480153667655435E-7   -0.07253140049920889     -0.07254635157549041     0.07254367316319695      -0.07252872208691545     0.07252872208691545      -0.07254367316319695     0.07254635157549041      0.07253140049920889
0.003612706850101301      5.36057593473734E-6      -0.02427498390098107     4.3421593942853633E-7    -0.072812493687316       -0.07283393599105499     0.07283740971857036      -0.0728159674148314      0.0728159674148314       -0.07283740971857036     0.07283393599105499      0.072812493687316
0.005118102664738831      6.344882812715816E-6     -0.024314961699044346    -6.738535001487067E-7    -0.07293489074550819     -0.07296027027675908     0.07295487944875784      -0.07292949991750695     0.07292949991750695      -0.07295487944875784     0.07296027027675908      0.07293489074550819
0.006851298163659415      7.478137093005973E-6     -0.02436098902221497     -1.9495983550851755E-6   -0.0730758091858792      -0.07310572173425127     0.07309012494741053      -0.0730602123990385      0.0730602123990385       -0.07309012494741053     0.07310572173425127      0.0730758091858792
0.007854673312457991      2.7793554549161674E-6    -0.024387436622817407    -1.1063767950582412E-6   -0.07316117666472258     -0.07317229408654229     0.07316344307218177      -0.07315232565036209     0.07315232565036209      -0.07316344307218177     0.07317229408654229      0.07316117666472258
0.008500589703793394      -2.4545543758211963E-7   -0.024404462098045743    -5.635582612317306E-7    -0.07321613143805729     -0.07321514961630701     0.07321064115021712      -0.07321162297196741     0.07321162297196741      -0.07321064115021712     0.07321514961630701      0.07321613143805729
0.008855966259536455      -1.5537441028619383E-6   -0.024413646139371636    -3.9689342636299474E-7   -0.07324563348002605     -0.07323941850361465     0.07323624335620373      -0.07324245833261513     0.07324245833261513      -0.07323624335620373     0.07323941850361465      0.07324563348002605
0.009123631092334668      -2.0963480395480837E-6   -0.02442020166449336     -9.992727858446959E-8    -0.07326519739867346     -0.07325681200651533     0.07325601258828662      -0.07326439798044476     0.07326439798044476      -0.07325601258828662     0.07325681200651533      0.07326519739867346
0.010260744780149695      -3.879994876891716E-6    -0.02444758423771779     -3.335868604553042E-7    -0.07335184705034892     -0.07333632707084141     0.07333365837595775      -0.07334917835546527     0.07334917835546527      -0.07333365837595775     0.07333632707084141      0.07335184705034892
0.011024930753214975      -5.078677039111866E-6    -0.02446598642440217     -4.906154644123081E-7    -0.07341007908914235     -0.07338976438098596     0.07338583945727062      -0.07340615416542703     0.07340615416542703      -0.07338583945727062     0.07338976438098596      0.07341007908914235
0.012552761474321477      -7.310939601634687E-6    -0.02450272616679458     -6.496071171557093E-7    -0.07352539880805559     -0.0734961550496491      0.0734909581927118       -0.07352020195111833     0.07352020195111833      -0.0734909581927118      0.0734961550496491       0.07352539880805559
0.015534914744685475      -6.3208462757227545E-6   -0.024576711929620673    -1.8759813077348974E-7   -0.07374352787393651     -0.07371824448883367     0.07371674370378745      -0.0737420270888903      0.0737420270888903       -0.07371674370378745     0.07371824448883367      0.07374352787393651
0.023087681970040574      -3.8132808543525772E-6   -0.024764092387281597    9.825115228262675E-7     -0.07429597367746213     -0.07428072055404475     0.07428858064622734      -0.07430383376964472     0.07430383376964472      -0.07428858064622734     0.07428072055404475      0.07429597367746213
0.023985426443139432      -3.2759386732473237E-6   -0.024785700886283308    -3.102428628864098E-7    -0.07436489550764792     -0.07435179175295496     0.07434930981005185      -0.0743624135647448      0.0743624135647448       -0.07434930981005185     0.07435179175295496      0.07436489550764792
0.027761547236600483      1.1195610067896622E-6    -0.02487483523883985     -3.629267597081899E-7    -0.07462371830154478     -0.07462819654557196     0.07462529313149427      -0.07462081488746708     0.07462081488746708      -0.07462529313149427     0.07462819654557196      0.07462371830154478
0.028883015755529755      2.0936406418101583E-6    -0.02490047442350146     1.8754041074494552E-7    -0.07469648582757774     -0.07470486039014501     0.07470636071343092      -0.07469798615086368     0.07469798615086368      -0.07470636071343092     0.07470486039014501      0.07469648582757774
0.029165834597533462      2.339290046805481E-6     -0.024906940271087478    3.2636061397022824E-7    -0.0747148367907129      -0.07472419395090014     0.07472680483581189      -0.07471744767562463     0.07471744767562463      -0.07472680483581189     0.07472419395090014      0.0747148367907129
0.035492826246561575      5.318560023326892E-6     -0.02504562870971118     -1.1410070960625795E-6   -0.07513081303747107     -0.07515208727756442     0.07514295922079589      -0.07512168498070255     0.07512168498070255      -0.07514295922079589     0.07515208727756442      0.07513081303747107
0.03847349938864091       2.9462493141962904E-7    -0.025112198026603076    -1.4498752854814282E-6   -0.07534180433108825     -0.07534298283081398     0.07533138382853008      -0.0753302053288044      0.0753302053288044       -0.07533138382853008     0.07534298283081398      0.07534180433108825
0.038942913460194684      6.755770898519484E-7     -0.025122685669112042    -7.675811043398366E-7    -0.07536977617757373     -0.07537247848593316     0.07536633783709842      -0.07536363552873901     0.07536363552873901      -0.07536633783709842     0.07537247848593316      0.07536977617757373
0.04052638653548933       1.960641859760317E-6     -0.025158063602034465    1.53399980415703E-6      -0.07546413352316718     -0.07547197609060624     0.07548424808903947      -0.07547640552160043     0.07547640552160043      -0.07548424808903947     0.07547197609060624      0.07546413352316718
0.04351912731307103       6.402072459366643E-6     -0.025221954698449005    -8.179094547721252E-8    -0.07565338711421012     -0.0756789954040476      0.07567834107648375      -0.07565273278664629     0.07565273278664629      -0.07567834107648375     0.0756789954040476       0.07565338711421012
0.04438985803255395       6.274414607051383E-6     -0.02523962435326551     -2.917177940189816E-7    -0.07570749110175842     -0.07573258876018665     0.07573025501783447      -0.07570515735940626     0.07570515735940626      -0.07573025501783447     0.07573258876018665      0.07570749110175842
0.04489359750596496       6.200561350397835E-6     -0.02524984668999196     -4.131657201953286E-7    -0.07573879161015579     -0.07576359385555739     0.07576028852979581      -0.07573548628439422     0.07573548628439422      -0.07576028852979581     0.07576359385555739      0.07573879161015579
0.05151241503414531       -2.991876524321589E-7    -0.025388056184068426    -1.076305024289691E-6    -0.07616907214760721     -0.07616787539699754     0.07615926495680317      -0.07616046170741289     0.07616046170741289      -0.07615926495680317     0.07616787539699754      0.07616907214760721
0.05544442503749601       -6.106149636913387E-6    -0.025465176876513312    -4.907506190891056E-6    -0.07642737295357725     -0.07640294835502963     0.07636368830550246      -0.07638811290405009     0.07638811290405009      -0.07636368830550246     0.07640294835502963      0.07642737295357725
0.05832859053759355       2.1702757805027784E-7    -0.02551755710335669     -9.741302510356995E-6    -0.07659120246495532     -0.07659207057526757     0.07651414015518465      -0.07651327204487243     0.07651327204487243      -0.07651414015518465     0.07659207057526757      0.07659120246495532
0.05994317601699335       6.785952979654896E-7     -0.025550773103956002    -6.675918368420511E-6    -0.07667766579474568     -0.07668038017593762     0.07662697282899018      -0.07662425844779829     0.07662425844779829      -0.07662697282899018     0.07668038017593762      0.07667766579474568
0.06102909729561579       -1.58149355127864E-6     -0.025574350309963148    -4.138768420122934E-6    -0.07674276899067242     -0.07673644301646738     0.07670333286910634      -0.07670965884331142     0.07670965884331142      -0.07670333286910634     0.07673644301646738      0.07674276899067242
0.06811728007070268       -3.3188808889897807E-6   -0.025711329772709717    6.308155669636544E-7     -0.07713810381763922     -0.07712482829408332     0.07712987481861901      -0.0771431503421749      0.0771431503421749       -0.07712987481861901     0.07712482829408332      0.07713810381763922
0.06898391616437209       -2.5735528407468317E-6   -0.025729037645689297    1.6942534610506942E-6    -0.0771854830289051      -0.0771751888175422      0.07718874284523058      -0.07719903705659348     0.07719903705659348      -0.07718874284523058     0.0771751888175422       0.0771854830289051
0.07204726637707409       9.258699812104463E-8     -0.025785644501234037    -1.3539624179453282E-6   -0.07736216417937758     -0.07736253452737014     0.07735170282802656      -0.07735133248003397     0.07735133248003397      -0.07735170282802656     0.07736253452737014      0.07736216417937758
0.07219844181185539       2.2416021742103754E-7    -0.025788438032957273    -1.5043909777958319E-6   -0.07737088334234811     -0.07737177998321786     0.07735974485539547      -0.07735884821452568     0.07735884821452568      -0.07735974485539547     0.07737177998321786      0.07737088334234811
0.0724992697677379        3.6882486323213515E-7    -0.02579391076622345     -1.5459684463967079E-6   -0.07738717852272942     -0.07738865382218241     0.07737628607461121      -0.07737481077515819     0.07737481077515819      -0.07737628607461121     0.07738865382218241      0.07738717852272942
0.07609719192828587       2.099023552660957E-6     -0.025859365016442225    -2.043237708555966E-6    -0.07758206995305554     -0.07759046604726623     0.07757412014559777      -0.07756572405138702     0.07756572405138702      -0.07757412014559777     0.07759046604726623      0.07758206995305554
0.07722215131989604       2.266389062730629E-6     -0.0258797766846575      -2.39544495740133E-6     -0.07764437905567662     -0.07765344461192758     0.07763428105226834      -0.07762521549601734     0.07762521549601734      -0.07763428105226834     0.07765344461192758      0.07764437905567662
0.07745733750124013       2.117447010187414E-6     -0.025884053521573303    -2.30481531901624E-6     -0.07765714493197558     -0.07766561472001636     0.07764717619746421      -0.07763870640942336     0.07763870640942336      -0.07764717619746421     0.07766561472001636      0.07765714493197558
0.0815607229367093        -4.520472188692285E-6    -0.025956038203505324    -4.743110198027867E-6    -0.07789612799568543     -0.07787804610693069     0.07784010122534644      -0.07785818311410114     0.07785818311410114      -0.07784010122534644     0.07787804610693069      0.07789612799568543
0.08340636132578835       -7.506104099153199E-6    -0.025988415784039428    -5.8398169791407255E-6   -0.07800361882823313     -0.07797359441183654     0.07792687587600339      -0.07795690029239993     0.07795690029239993      -0.07792687587600339     0.07797359441183654      0.07800361882823313
0.08573584997476888       -2.5649315361286955E-6   -0.026030600380943843    -4.6469076184333916E-7   -0.07809878976895115     -0.07808853004280664     0.07808481251671187      -0.07809507224285632     0.07809507224285632      -0.07808481251671187     0.07808853004280664      0.07809878976895115
0.08625199777697037       -1.4701095631519854E-6   -0.026039947276447498    7.26282881590469E-7      -0.07811987691694243     -0.07811399647868981     0.07811980674174251      -0.07812568717999507     0.07812568717999507      -0.07811980674174251     0.07811399647868981      0.07811987691694243
0.0920795644720397        1.741565625797443E-6     -0.026139990863217534    1.5973722655309158E-6    -0.07841009996933887     -0.07841706623184208     0.07842984520996629      -0.07842287894746305     0.07842287894746305      -0.07842984520996629     0.07841706623184208      0.07841009996933887
0.0943162201396576        2.974226166600763E-6     -0.026178388202461603    1.931701688005048E-6     -0.07852148934829958     -0.07853338625296599     0.07854883986646999      -0.07853694296180355     0.07853694296180355      -0.07854883986646999     0.07853338625296599      0.07852148934829958
0.09694825910601484       4.414162973727004E-6     -0.02622324490721801     1.1143375370063453E-6    -0.07865644904555853     -0.07867410569745345     0.07868302039774946      -0.07866536374585452     0.07866536374585452      -0.07868302039774946     0.07867410569745345      0.07865644904555853
0.09872516047954098       2.9990065609943926E-6    -0.026251835812334146    -1.8320222484146902E-7   -0.07875024223277981     -0.07876223825902379     0.07876077264122502      -0.07874877661498102     0.07874877661498102      -0.07876077264122502     0.07876223825902379      0.07875024223277981
0.10056719682632305       7.285005790660834E-7     -0.026281289681911256    -3.767310237789694E-7    -0.07884391896867075     -0.07884683297098702     0.07884381912279675      -0.07884090512048045     0.07884090512048045      -0.07884381912279675     0.07884683297098702      0.07884391896867075
0.10286769279207177       -2.1071057110916123E-6   -0.026318074248218103    -6.184267004086191E-7    -0.07896091066287814     -0.07895248224003379     0.07894753482643048      -0.0789559632492748      0.0789559632492748       -0.07894753482643048     0.07895248224003379      0.07896091066287814
0.10978507558324102       1.9584737498273017E-6    -0.026429859985288576    -2.892259055898495E-7    -0.07928681991198845     -0.07929465380698777     0.07929233999974301      -0.07928450610474365     0.07928450610474365      -0.07929233999974301     0.07929465380698777      0.07928681991198845
0.11064390576151992       1.2750622094824965E-6    -0.026443613723087483    -7.222076782271301E-7    -0.0793311798755564      -0.07933628012439436     0.07933050246296851      -0.07932540221413052     0.07932540221413052      -0.07933050246296851     0.07933628012439436      0.0793311798755564
0.1114821043580499        1.1129255802252557E-6    -0.026455886574796722    -7.359843347817455E-7    -0.07936837781056887     -0.07937282951288979     0.0793669416382115       -0.07936248993589053     0.07936248993589053      -0.0793669416382115      0.07937282951288979      0.07936837781056887
0.11397841818532006       4.878122039746123E-8     -0.026492988059787823    6.84886157342665E-9      -0.07947883922147642     -0.079479034346358       0.07947908913725055      -0.07947889401236889     0.07947889401236889      -0.07947908913725055     0.079479034346358        0.07947883922147642
0.11476394894808911       -2.8607977405770434E-7   -0.026504663017273753    2.4060085259659653E-7    -0.07951359880795904     -0.0795124544888628      0.07951437929568352      -0.07951552361477969     0.07951552361477969      -0.07951437929568352     0.0795124544888628       0.07951359880795904
0.11499918440436684       3.407182990239799E-8     -0.02650833611003152     1.270791984708566E-7     -0.07952443186964094     -0.07952456815696053     0.07952558479054825      -0.07952544850322858     0.07952544850322858      -0.07952558479054825     0.07952456815696053      0.07952443186964094
0.11520680288470211       1.720452548089074E-7     -0.02651154422753611     2.0540793927880163E-7    -0.07953346696034164     -0.07953415514136086     0.07953579840487504      -0.07953511022385576     0.07953511022385576      -0.07953579840487504     0.07953415514136086      0.07953346696034164
0.11535462246688606       2.7027915956167695E-7    -0.026513828333403558    2.611762009505357E-7     -0.0795398997370878      -0.07954098085372603     0.07954307026333358      -0.07954198914669529     0.07954198914669529      -0.07954307026333358     0.07954098085372603      0.0795398997370878
0.11632597018615926       5.779484063628956E-7     -0.026529432052140277    5.998180547985251E-7     -0.07958474098738896     -0.07958705278101441     0.07959185132545274      -0.07958953953182725     0.07958953953182725      -0.07959185132545274     0.07958705278101441      0.07958474098738896
0.11912438164736029       7.75362681561116E-7      -0.026572151885334808    -3.4757893210082994E-7   -0.07971629524636976     -0.079719396697096       0.07971661606563915      -0.07971351461491286     0.07971351461491286      -0.07971661606563915     0.079719396697096        0.07971629524636976
0.12002270220190298       8.387348137973961E-7     -0.02658586541702139     -6.517036823183083E-7    -0.0797585255961659      -0.0797618805354211      0.0797566669059625       -0.07975331196670726     0.07975331196670726      -0.0797566669059625      0.0797618805354211       0.0797585255961659
0.12311212334781117       -1.094889975177234E-6    -0.026632525535639513    9.588476951602465E-7     -0.0798959309960883      -0.0798915514361876      0.07989922221774884      -0.0799036017776495      0.0799036017776495       -0.07989922221774884     0.0798915514361876       0.0798959309960883
0.12525602982773096       -3.172821580961303E-6    -0.026664670894118156    2.798861825609561E-6     -0.07998916287821399     -0.07997647159189016     0.07999886248649499      -0.08001155377281878     0.08001155377281878      -0.07999886248649499     0.07997647159189016      0.07998916287821399
0.1253707943485982        -3.056293801507702E-6    -0.02666641030221937     2.667036406441734E-6     -0.07999467534863541     -0.07998245017342938     0.08000378646468087      -0.08001601163988686     0.08001601163988686      -0.08000378646468087     0.07998245017342938      0.07999467534863541
0.12706053777667775       -1.3405889126413335E-6   -0.02669202059872537     7.260956521967971E-7     -0.08007583859139267     -0.08007047623574212     0.08007628500095965      -0.08008164735661016     0.08008164735661016      -0.08007628500095965     0.08007047623574212      0.08007583859139267
0.12751153345612332       -8.939916297610518E-7    -0.02669861388605764     8.255675791485586E-7     -0.0800943273711159      -0.08009075140459687     0.08009735594523         -0.08010093191174901     0.08010093191174901      -0.08009735594523        0.08009075140459687      0.0800943273711159
0.1287421043541497        -2.4192358099600037E-6   -0.026716795329951477    2.151461357338383E-6     -0.08014661861604506     -0.08013694167280522     0.08015415336366388      -0.0801638303069037      0.0801638303069037       -0.08015415336366388     0.08013694167280522      0.08014661861604506
0.12956548596798304       -1.8057092138780553E-6   -0.02672909442953121     1.3861687400458216E-6    -0.08018535003206126     -0.08017812719520576     0.08018921654512608      -0.08019643938198157     0.08019643938198157      -0.08018921654512608     0.08017812719520576      0.08018535003206126
0.13108601033594036       -6.727204222174225E-7    -0.026751806960756984    -2.708369802315642E-8    -0.08025687465790754     -0.08025418377621868     0.08025396710663443      -0.0802566579883233      0.0802566579883233       -0.08025396710663443     0.08025418377621868      0.08025687465790754
0.1329048323191574        -9.667420866426684E-8    -0.02677790613926231     1.291972179424753E-6     -0.08032874387748663     -0.08032835718065197     0.08033869295808731      -0.08033907965492196     0.08033907965492196      -0.08033869295808731     0.08032835718065197      0.08032874387748663
0.13343902183509226       -2.5428692627662026E-7   -0.026785752647990917    1.3188068803361265E-6    -0.08035249129030403     -0.08035147414259894     0.08036202459764155      -0.08036304174534666     0.08036304174534666      -0.08036202459764155     0.08035147414259894      0.08035249129030403
0.13504894883542976       -7.82698101569544E-7     -0.026810073332614696    1.101169431007954E-6     -0.08042738071632327     -0.080424249923917       0.08043305927936499      -0.08043619007177127     0.08043619007177127      -0.08043305927936499     0.080424249923917        0.08042738071632327
0.1391369554544655        -2.124466008882794E-6    -0.026871829623241944    5.485336076339141E-7     -0.08061754366731312     -0.08060904580327759     0.08061343407213861      -0.08062193193617415     0.08062193193617415      -0.08061343407213861     0.08060904580327759      0.08061754366731312
0.13960989780770724       -1.9041766025439569E-6   -0.02687868939410027     5.722265795979472E-7     -0.08063758762918756     -0.08062997092277739     0.08063454873541412      -0.08064216544182427     0.08064216544182427      -0.08063454873541412     0.08062997092277739      0.08063758762918756
0.14141536385999431       -8.096052431317885E-7    -0.026904390047857073    3.6395941494660895E-7    -0.08071333351639776     -0.0807100950954252      0.08071300677074474      -0.08071624519171727     0.08071624519171727      -0.08071300677074474     0.0807100950954252       0.08071333351639776
0.14326986535564498       3.146940592864948E-7     -0.02693078871692693     1.50035831143116E-7      -0.08079113661933768     -0.08079239539557481     0.08079359568222391      -0.08079233690598678     0.08079233690598678      -0.08079359568222391     0.08079239539557481      0.08079113661933768
0.14413852028139867       -5.63302790032645E-7     -0.02694371219883872     4.3121521827487864E-7    -0.08083053834122317     -0.08082828513006302     0.08083173485180917      -0.08083398806296932     0.08083398806296932      -0.08083173485180917     0.08082828513006302      0.08083053834122317
0.14452084257287875       -7.431280292960707E-7    -0.026949368976984106    2.266346939211006E-7     -0.08084868664823527     -0.08084571413611805     0.08084752721366938      -0.08085049972578659     0.08085049972578659      -0.08084752721366938     0.08084571413611805      0.08084868664823527
0.14454434430850926       -7.598935708521968E-7    -0.026949725268529325    2.2270198477461272E-7    -0.08084980478479062     -0.08084676521050718     0.08084854682638534      -0.08085158640066878     0.08085158640066878      -0.08084854682638534     0.08084676521050718      0.08084980478479062
0.14586736613527748       -1.7037037542802546E-6   -0.026969782574016395    1.311525749244975E-9     -0.08091274988345479     -0.08090593506843764     0.0809059455606436       -0.08091276037566074     0.08091276037566074      -0.0809059455606436      0.08090593506843764      0.08091274988345479
0.14776140940200758       -2.4567868449423077E-6   -0.02699606254248406     1.2987376507067748E-6    -0.0809879062505393      -0.08097807910315949     0.0809884690043651       -0.08099829615174489     0.08099829615174489      -0.0809884690043651      0.08097807910315949      0.0809879062505393
0.1477660820949852        -2.4569295580037757E-6   -0.02699612566044271     1.2978291163405878E-6    -0.08098809952397883     -0.0809782718057468      0.08098865443867749      -0.08099848215690952     0.08099848215690952      -0.08098865443867749     0.0809782718057468       0.08098809952397883
0.15303954942234807       -6.92304515503321E-7     -0.027070565416078156    5.262784022291111E-7     -0.08121097574365661     -0.08120820652559455     0.08121241675281235      -0.08121518597087442     0.08121518597087442      -0.08121241675281235     0.08120820652559455      0.08121097574365661
0.1548233143249774        -9.541521635473073E-8    -0.027095744869219708    2.652992401339044E-7     -0.08128636424113136     -0.0812859825802659      0.08128810497418694      -0.08128848663505239     0.08128848663505239      -0.08128810497418694     0.0812859825802659       0.08128636424113136
0.15557751722913876       -8.020907585479736E-8    -0.02710632885398786     -1.386720120048296E-8    -0.08131920244892016     -0.08131888161261669     0.08131877067500706      -0.0813190915113105      0.0813190915113105       -0.08131877067500706     0.08131888161261669      0.08131920244892016
0.15611908436566052       -2.789940528596379E-7    -0.027113937412192014    -1.8078446718109886E-7   -0.08134309336255055     -0.08134197738633905     0.08134053111060159      -0.08134164708681306     0.08134164708681306      -0.08134053111060159     0.08134197738633905      0.08134309336255055
0.15628540026603857       -2.6467547740281336E-7   -0.02711618983113903     -1.12296900247143E-7     -0.08134954803197296     -0.08134848933006328     0.08134759095486127      -0.08134864965677091     0.08134864965677091      -0.08134759095486127     0.08134848933006328      0.08134954803197296
0.16206256966737836       -1.1857464963080456E-7   -0.027196912637904302    5.376115994652663E-7     -0.08158882461661436     -0.08158835031801581     0.08159265121081151      -0.08159312550941003     0.08159312550941003      -0.08159265121081151     0.08158835031801581      0.08158882461661436
0.16296065392756065       -9.586268730004519E-8    -0.027209461323455534    6.386424942863554E-7     -0.08162602112576411     -0.08162563767501489     0.08163074681496917      -0.08163113026571835     0.08163113026571835      -0.08163074681496917     0.08162563767501489      0.08162602112576411
0.16310183914734605       -9.495940070926012E-8    -0.02721142976190559     6.543944471631062E-7     -0.0816318616267296      -0.08163148178912673     0.08163671694470401      -0.08163709678230682     0.08163709678230682      -0.08163671694470401     0.08163148178912673      0.0816318616267296
0.16312433964017303       -8.505179226171145E-8    -0.027211735525829325    6.718647816296602E-7     -0.08163268922194603     -0.08163234901477698     0.08163772393302998      -0.081638064140199       0.081638064140199        -0.08163772393302998     0.08163234901477698      0.08163268922194603
0.16541256719963915       -5.696631842360639E-7    -0.02724371519075884     9.635101868618012E-7     -0.08172843085789759     -0.08172615220516062     0.0817338602866555       -0.08173613893939241     0.08173613893939241      -0.0817338602866555      0.08172615220516062      0.08172843085789759
0.16714163581055022       -4.417739495337756E-7    -0.02726824093006425     8.221340612465326E-7     -0.08180231780184687     -0.08180055070604872     0.08180712777853866      -0.08180889487433679     0.08180889487433679      -0.08180712777853866     0.08180055070604872      0.08180231780184687
0.17162942550550186       1.8697991495269E-7       -0.027331087833441133    4.4284776284582217E-7    -0.08199111814944211     -0.08199186606910193     0.08199540885120465      -0.08199466093154484     0.08199466093154484      -0.08199540885120465     0.08199186606910193      0.08199111814944211
0.17289624269521842       -3.9979833573833105E-8   -0.027348928232632297    -3.308036992675942E-7    -0.08204818787236112     -0.08204802795302683     0.08204538152343266      -0.08204554144276695     0.08204554144276695      -0.08204538152343266     0.08204802795302683      0.08204818787236112
0.17569711764952614       1.2205487119385216E-6    -0.02738711993349721     -2.5086640721361907E-8   -0.08215901904963066     -0.08216390124447842     0.08216370055135261      -0.08215881835650485     0.08215881835650485      -0.08216370055135261     0.08216390124447842      0.08215901904963066
0.17834278597743658       5.10601147326044E-7      -0.027423091862003472    8.389663578449129E-7     -0.08226489851828439     -0.0822669409228737      0.08227365265373643      -0.08227161024914713     0.08227161024914713      -0.08227365265373643     0.0822669409228737       0.08226489851828439
0.1814980476297185        -1.0650130749912214E-7   -0.027466927750623277    1.422388400481208E-7     -0.08240042729912467     -0.08240000129389469     0.08240113920461502      -0.08240156520984501     0.08240156520984501      -0.08240113920461502     0.08240000129389466      0.08240042729912467
0.18300817391489757       -4.0185007421896846E-7   -0.027487907857801103    -1.9121893752535818E-7   -0.08246529214930189     -0.082463684749005       0.08246215499750478      -0.08246376239780165     0.08246376239780165      -0.08246215499750478     0.082463684749005        0.08246529214930189
0.18399319722973329       -2.3609707902428215E-7   -0.027501406369353998    1.9642361620582432E-8    -0.08250461273277357     -0.08250366834445749     0.08250382548335042      -0.0825047698716665      0.0825047698716665       -0.08250382548335042     0.08250366834445749      0.08250461273277357
0.18555304734443015       1.574948518361018E-7     -0.0275226987530463      3.7768014336112516E-7    -0.08256627054886179     -0.08256690052826918     0.08256992196941601      -0.08256929199000865     0.08256929199000865      -0.08256992196941601     0.08256690052826915      0.08256627054886179