% Model:              Cylinder_slice_potential.mph
% Version:            COMSOL 6.2.0.339
% Date:               May 8 2024, 04:47
% Dimension:          1
% Nodes:              1068
% Expressions:        11
% Description:        Line graph
% Arc length (m)          Magnetic scalar potential Magnetic scalar potential Magnetic scalar potential Magnetic scalar potential Magnetic scalar potential Magnetic scalar potential Magnetic scalar potential Magnetic scalar potential Magnetic scalar potential Magnetic scalar potential Magnetic scalar potential
0                         -0.0052225983689615256   -0.004848758346696041    -1.6846776895139088E-7   -0.024992145649087       -0.0041017521732408975   0.0041004044310892765    -0.02499079790693536     0.02499079790693536      -0.0041004044310892765   0.0041017521732408975    0.024992145649087
0.0017594242041372062     -0.00526671394099655     -0.004886312526214441    -8.609153152301484E-7    -0.025195809121897367    -0.004128953357911166    0.004122066035389315     -0.025188921799375496    0.025188921799375496     -0.004122066035389315    0.004128953357911166     0.025195809121897367
0.0036763301126480226     -0.00531514743499453     -0.004932740227952554    -1.2482962050864245E-6   -0.02543350873866709     -0.00417291899868897     0.0041629326290482695    -0.025423522369026372    0.025423522369026372     -0.0041629326290482695   0.00417291899868897      0.02543350873866709
0.004026883996098086      -0.005324004703019353    -0.0049412306870156185   -1.3191384278113538E-6   -0.025476978020796827    -0.0041809592087194165   0.004170406101296915     -0.02546642491337431     0.02546642491337431      -0.004170406101296915    0.0041809592087194165    0.025476978020796827
0.015486603393928197      -0.005625319142515099    -0.0052001232513626365   5.277136411544851E-8     -0.026850796953661663    -0.0043495203836012705   0.004349942554514184     -0.02685121912457456     0.02685121912457456      -0.004349942554514184    0.0043495203836012705    0.026850796953661663
0.015893931024196853      -0.005636029151403167    -0.005209325404667508    1.0153492848280059E-7    -0.026899628377094947    -0.00435551177148228     0.004356324050910131     -0.026900440656522785    0.026900440656522785     -0.004356324050910131    0.00435551177148228      0.026899628377094947
0.016681906150176985      -0.005657252161422453    -0.005228503989535244    -4.0887046151860006E-7   -0.027001651773296734    -0.004372643127606927    0.004369372163914766     -0.02699838080960456     0.02699838080960456      -0.004369372163914766    0.004372643127606927     0.027001651773296734
0.02154292377992293       -0.005795825828043828    -0.005358025487369599    -1.5674391605234043E-6   -0.027671997874838566    -0.004488694562663265    0.0044761550493790676    -0.027659458361554357    0.027659458361554357     -0.0044761550493790676   0.004488694562663265     0.027671997874838566
0.02157441307157574       -0.005796722216281434    -0.005358856761312796    -1.573614842891782E-6    -0.02767630917587284     -0.004489420310747116    0.0044768313920039715    -0.027663720257129685    0.027663720257129685     -0.0044768313920039715   0.004489420310747116     0.02767630917587284
0.02184486949135214       -0.0058044211494980204   -0.005365996438413477    -1.6266567773196555E-6   -0.02771333824134577     -0.004495653643353696    0.004482640389135129     -0.027700324987127187    0.027700324987127187     -0.004482640389135129    0.004495653643353696     0.02771333824134577
0.03160438809621678       -0.006092261594928927    -0.005607739957926416    -4.000581066824325E-7    -0.029009343296063847    -0.004640296916348149    0.004637096451494679     -0.02900614283121037     0.02900614283121037      -0.004637096451494679    0.004640296916348149     0.029009343296063847
0.032205242716426455      -0.006110928243665092    -0.005624008629015204    -7.85488511925031E-8     -0.029094196569780583    -0.0046504835951202235   0.004649855204310674     -0.029093568178971026    0.029093568178971026     -0.004649855204310674    0.0046504835951202235    0.029094196569780583
0.03323536008933637       -0.006142930725647208    -0.005651899969381149    4.7265315090896316E-7    -0.029239670746834243    -0.00466794784424542     0.004671729069452681     -0.029243451972041493    0.029243451972041493     -0.004671729069452681    0.00466794784424542      0.029239670746834243
0.040965952289897176      -0.006401441521308043    -0.005860826429188914    9.836237674153245E-7     -0.030381427835113183    -0.00477566174988102     0.004783530740020333     -0.030389296825252488    0.030389296825252488     -0.004783530740020333    0.00477566174988102      0.030381427835113183
0.04333209637804485       -0.00647710622051565     -0.005927334409902174    6.199914479891388E-7     -0.03073373570494588     -0.004825310822883289    0.004830270754467191     -0.030738695636529773    0.030738695636529773     -0.004830270754467191    0.004825310822883289     0.03073373570494588
0.04403242653286267       -0.006499501420696292    -0.005947019409079888    5.123637342602402E-7     -0.03083801161369522     -0.004840005930910062    0.004844104840784133     -0.03084211052356928     0.03084211052356928      -0.004844104840784133    0.004840005930910062     0.03083801161369522
0.04652687004225656       -0.006578681633069479    -0.0060206614565072305   -3.2348326141089114E-7   -0.03122064156870631     -0.004905915036428399    0.004903327170337102     -0.031218053702614997    0.031218053702614997     -0.004903327170337102    0.004905915036428399     0.03122064156870631
0.04772272586738833       -0.006613004236010429    -0.00605450541009773     -1.3497584308096885E-7   -0.031390064605686385    -0.004938047661644681    0.004936967854900023     -0.03138898479894172     0.03138898479894172      -0.004936967854900023    0.004938047661644681     0.031390064605686385
0.048112027630147644      -0.006624177698184205    -0.0060655230516182485   -7.360868768750052E-8    -0.031445218985973925    -0.004948508193237111    0.004947919323735601     -0.0314446301164724      0.0314446301164724       -0.004947919323735601    0.004948508193237111     0.031445218985973925
0.04868541032525173       -0.006645726302829432    -0.006085742004069772    -2.908996853314826E-8    -0.03154879497774233     -0.004965889766424609    0.004965657046676334     -0.03154856225799404     0.03154856225799404      -0.004965657046676334    0.004965889766424609     0.03154879497774233
0.05028297604318892       -0.006705765282632177    -0.006142076291038955    9.494861884444749E-8     -0.03183737964390586     -0.0050143185133771535   0.005015078102327899     -0.03183813923285658     0.03183813923285658      -0.005015078102327899    0.0050143185133771535    0.03183737964390586
0.05198568507234145       -0.006765309801082548    -0.006192748468546524    -1.0064144687314627E-7   -0.032109267573592185    -0.005048028369261988    0.0050472232376869925    -0.03210846244201716     0.03210846244201716      -0.0050472232376869925   0.005048028369261988     0.032109267573592185
0.053536207034753404      -0.0068210392138823885   -0.006237182939191679    2.1262589077737125E-8    -0.03235354219498352     -0.005069385339453973    0.005069555440166585     -0.03235371229569611     0.03235371229569611      -0.005069555440166585    0.005069385339453973     0.03235354219498352
0.055208463636359804      -0.006881144056456311    -0.006285106050683541    1.5273755932855287E-7    -0.03261699531472594     -0.005092419088900709    0.005093640989375327     -0.03261821721520054     0.03261821721520054      -0.005093640989375327    0.005092419088900709     0.03261699531472594
0.05767966393761226       -0.006978742751526001    -0.006357618387062565    -5.945235141301631E-8    -0.033030578473645364    -0.005115607467541365    0.005115131848730052     -0.033030102854834036    0.033030102854834036     -0.005115131848730052    0.005115607467541365     0.033030578473645364
0.058723558638735816      -0.007019322575638937    -0.006390723111701575    -3.1635206511350593E-7   -0.03321207989464307     -0.005134789592087326    0.005132258775566409     -0.03320954907812214     0.03320954907812214      -0.005132258775566409    0.005134789592087326     0.03321207989464307
0.05959034502725923       -0.007050657415383854    -0.006420361935630655    -1.7522728762918965E-7   -0.03336310154681021     -0.0051604718852747925   0.00515907006697375      -0.033361699728509144    0.033361699728509144     -0.00515907006697375     0.0051604718852747925    0.03336310154681021
0.06271557255347092       -0.007163636235767809    -0.006527225713851137    3.336028521423941E-7     -0.03390761520168047     -0.005253070258609243    0.0052557390814263714    -0.03391028402449759     0.03391028402449759      -0.0052557390814263714   0.005253070258609243     0.03390761520168047
0.06615305841115945       -0.0073103402157919314   -0.00664425328367355     1.1300910059708927E-6    -0.03454891991858065     -0.005307559055412926    0.0053165997834606835    -0.03455796064662839     0.03455796064662839      -0.0053165997834606835   0.005307559055412926     0.03454891991858065
0.0686112008331815        -0.007405944408297163    -0.006729044171556595    8.886702081959534E-7     -0.03499546665043135     -0.005371689017242701    0.005378798378908259     -0.03500257601209689     0.03500257601209689      -0.005378798378908259    0.005371689017242701     0.03499546665043135
0.06898771969083316       -0.007420210773163774    -0.006741461172670332    7.134736342991643E-7     -0.03506195116980137     -0.0053811080771462745   0.005386815866220657     -0.035067658958875744    0.035067658958875744     -0.005386815866220657    0.0053811080771462745    0.03506195116980137
0.07022268147058203       -0.0074670036893435985   -0.006782188274335849    1.3883821217200906E-7    -0.035280016848846074    -0.005412002091471688    0.005413112797169054     -0.035281127554543434    0.035281127554543434     -0.005413112797169054    0.005412002091471688     0.035280016848846074
0.07059295719190174       -0.007483483254923669    -0.006795577119209698    -6.313510013375342E-8    -0.03535395040787699     -0.0054200173881823145   0.005419512307381235     -0.0353534453270759      0.0353534453270759       -0.005419512307381235    0.0054200173881823145    0.03535395040787699
0.0713138379720813        -0.007515566919631797    -0.006821643535079371    -4.5635202084206214E-7   -0.035497889852585104    -0.0054356221740579115   0.0054319713578911645    -0.035494239036418344    0.035494239036418344     -0.0054319713578911645   0.0054356221740579115    0.035497889852585104
0.07748865117689054       -0.0077806912576377524   -0.007047605345319887    4.085491876694476E-7     -0.036702564354484504    -0.005579799323933507    0.00558306771743485      -0.03670583274798584     0.03670583274798584      -0.00558306771743485     0.005579799323933507     0.036702564354484504
0.07772979038769312       -0.0077901322384159545   -0.0070565379799026684   3.627688879483911E-7     -0.03674842734098815     -0.005587898387324333    0.005590800538427908     -0.03675132949209171     0.03675132949209171      -0.005590800538427908    0.005587898387324333     0.03674842734098815
0.07800660240623007       -0.007802801261767601    -0.007067672512740216    2.88026547056483E-7      -0.03680746795556765     -0.005596262908497251    0.005598567120873691     -0.03680977216794408     0.03680977216794408      -0.005598567120873691    0.005596262908497251     0.03680746795556765
0.0782026298696551        -0.007811772969444247    -0.007075557554148838    2.3509693954542664E-7    -0.03684927821357685     -0.0056021863357998605   0.005604067111316213     -0.03685115898909319     0.03685115898909319      -0.005604067111316213    0.0056021863357998605    0.03684927821357685
0.08390411730542675       -0.008072473443464505    -0.007290717751347301    -6.189637069599481E-7    -0.03801957599579879     -0.005729682221940759    0.005724730512285068     -0.03801462428614308     0.03801462428614308      -0.005724730512285068    0.005729682221940759     0.03801957599579879
0.08658046841843656       -0.008190891183982673    -0.007400717120796633    -9.824793029741252E-8    -0.03858432672207648     -0.0058207619861457656   0.005819976002703375     -0.03858354073863407     0.03858354073863407      -0.005819976002703375    0.0058207619861457656    0.03858432672207648
0.0872052259224084        -0.008220609109498579    -0.007426026162234251    1.6100665533717663E-7    -0.0387186526790786      -0.00583621624108427     0.005837504294326956     -0.03871994073232127     0.03871994073232127      -0.005837504294326956    0.00583621624108427      0.0387186526790786
0.0880613418120641        -0.008262287451641303    -0.007463314306898042    7.090393275472912E-8     -0.03891423420824575     -0.005865084401680528    0.005865651633142553     -0.038914801439707755    0.038914801439707755     -0.005865651633142553    0.005865084401680528     0.03891423420824575
0.0896308666673189        -0.008342306454928379    -0.00752255598416098     4.252688379860102E-7     -0.039250579786987795    -0.005881353967274258    0.005884756117978134     -0.03925398193769166     0.03925398193769166      -0.005884756117978134    0.005881353967274258     0.039250579786987795
0.09059029240283535       -0.008387282617529418    -0.007560188856432794    3.900311056016087E-7     -0.03945357167993485     -0.005904441209817154    0.005907561458661955     -0.03945669192877964     0.03945669192877964      -0.005907561458661955    0.005904441209817154     0.03945357167993485
0.09080216239393121       -0.008397200487993058    -0.007569709039195436    3.444285195668271E-7     -0.0395021503794942      -0.005913348427521942    0.0059161038556784645    -0.0395049058076507      0.0395049058076507       -0.0059161038556784645   0.005913348427521942     0.0395021503794942
0.09256821511587893       -0.008479871384601118    -0.007649064990429691    -3.569407721061129E-8    -0.0399070805168002      -0.0059875949783957      0.005987309425778003     -0.03990679496418248     0.03990679496418248      -0.005987309425778003    0.0059875949783957       0.0399070805168002
0.09417042655703488       -0.008558557592550751    -0.007711749965074352    1.4981936630029243E-7    -0.0402517658028594      -0.006017535432656373    0.0060187339875867624    -0.04025296435778977     0.04025296435778977      -0.0060187339875867624   0.006017535432656373     0.0402517658028594
0.09423892592446328       -0.008561853830154436    -0.007714549003825741    1.3217641442851627E-7    -0.04026682596612842     -0.006019410645510659    0.006020468056826075     -0.04026788337744382     0.04026788337744382      -0.006020468056826075    0.006019410645510659     0.04026682596612842
0.10008499384870823       -0.00887550427492675     -0.007959390269230555    1.727208909800792E-7     -0.041628488473981276    -0.006126471374274262    0.006127853141402092     -0.04162987024110909     0.04162987024110909      -0.006127853141402092    0.006126471374274262     0.041628488473981276
0.10038396292259301       -0.008891544420920989    -0.007971911500135738    1.7479434355754241E-7    -0.04169812416487499     -0.006131946481191024    0.006133344835939473     -0.04169952251962342     0.04169952251962342      -0.006133344835939473    0.006131946481191024     0.04169812416487499
0.1011041441344076        -0.008927966469773287    -0.008002872618270564    3.802201651546754E-8     -0.04186439870629224     -0.006152532827199079    0.006152837003331191     -0.04186470288242433     0.04186470288242433      -0.006152837003331191    0.006152532827199079     0.04186439870629224
0.10113562719166136       -0.008929558676610267    -0.008004226097976628    3.204295050771665E-8     -0.041871667475348415    -0.006153432768907338    0.0061536891125113895    -0.04187192381895245     0.04187192381895245      -0.0061536891125113895   0.006153432768907338     0.041871667475348415
0.10134161632366007       -0.008940464335763662    -0.008013794636154994    -6.197188867309906E-8    -0.04192256046754703     -0.0061607031244923696   0.006160207349382974     -0.04192206469243762     0.04192206469243762      -0.006160207349382974    0.0061607031244923696    0.04192256046754703
0.10153619296771926       -0.0089506515733676      -0.008023500452511226    -1.0800917873744479E-7   -0.041972236540983865    -0.006169630247513448    0.006168766174083537     -0.04197137246755394     0.04197137246755394      -0.006168766174083537    0.006169630247513448     0.041972236540983865
0.10165588461858245       -0.008957488851702377    -0.008029432757511588    -9.99201511043024E-8     -0.04200367565654397     -0.006173720249734446    0.006172920888525601     -0.04200287629533511     0.04200287629533511      -0.006172920888525601    0.006173720249734446     0.04200367565654397
0.1020055974918786        -0.008976919591578704    -0.008046248041150674    -1.3959949617650237E-7   -0.04209314170459416     -0.006185463338279337    0.006184346542309915     -0.04209202490862473     0.04209202490862473      -0.006184346542309915    0.006185463338279337     0.04209314170459416
0.10240023078025315       -0.008998846198685474    -0.008065223238188453    -1.8437563003398655E-7   -0.04219409961445648     -0.006198714819714565    0.006197239814674282     -0.042192624609416175    0.042192624609416175     -0.006197239814674282    0.006198714819714565     0.04219409961445648
0.10451546604953889       -0.009121703904361341    -0.00816622234970231     -7.922242794125663E-8    -0.0427423917475414      -0.0062555761300960334   0.006254942350672492     -0.04274175796811784     0.04274175796811784      -0.006254942350672492    0.0062555761300960334    0.0427423917475414
0.1055292569456164        -0.009179267795922461    -0.008214149982608087    -3.4129788832474437E-8   -0.043001122058824545    -0.0062840508751346915   0.006283777836824021     -0.043000849020513855    0.043000849020513855     -0.006283777836824021    0.0062840508751346915    0.043001122058824545
0.11344198403645336       -0.009628559031395194    -0.008588229371918603    3.1782222459883693E-7    -0.04502053488964782     -0.006506298764067053    0.006508841341863832     -0.04502307746744459     0.04502307746744459      -0.006508841341863832    0.006506298764067053     0.04502053488964782
0.11516959489318744       -0.00973093902515166     -0.00866995995824443     1.35186718988791E-7      -0.04547121717816066     -0.006547461077554052    0.00654854257130595      -0.04547229867191256     0.04547229867191256      -0.00654854257130595     0.006547461077554052     0.04547121717816066
0.11613072705423118       -0.00978823054051996     -0.008711957460823242    1.7058717871067968E-7    -0.045711651114794825    -0.006558728952715002    0.006560093650144675     -0.04571301581222449     0.04571301581222449      -0.006560093650144675    0.006558728952715002     0.045711651114794825
0.1174124364160518        -0.009870167546327906    -0.008774416810283948    2.6391481842123827E-7    -0.046062529864233995    -0.006581859678922384    0.006583970997469743     -0.04606464118278134     0.04606464118278134      -0.006583970997469743    0.006581859678922384     0.046062529864233995
0.12050168016051577       -0.010060062213762358    -0.008926129550177953    -1.1469754470612512E-7   -0.046898971868237424    -0.006658723013187996    0.006657805432830337     -0.046898054287879756    0.046898054287879756     -0.006657805432830337    0.006658723013187996     0.046898971868237424
0.12122135811667877       -0.010102289792916129    -0.008962546911542264    -4.301705667609184E-8    -0.04709239238868578     -0.006683233217021266    0.006682889080567847     -0.047092048252232344    0.047092048252232344     -0.006682889080567847    0.006683233217021266     0.04709239238868578
0.12162343933997462       -0.010125882174116039    -0.00898289314707883     -2.9694519568533627E-9   -0.04720045566727642     -0.0066969269708122715   0.006696903215196606     -0.04720043191166074     0.04720043191166074      -0.006696903215196606    0.0066969269708122715    0.04720045566727642
0.12175176887154884       -0.010134587031467017    -0.008990829537517384    1.3342803224257785E-8    -0.047241609304273305    -0.006703261178405253    0.006703367920831035     -0.04724171604669908     0.04724171604669908      -0.006703367920831035    0.006703261178405253     0.047241609304273305
0.12203122909554087       -0.010153543396033152    -0.009008112429634568    4.8865620387292984E-8    -0.04733122861848848     -0.006717055034355877    0.0067174459593189635    -0.047331619543451546    0.047331619543451546     -0.0067174459593189635   0.006717055034355877     0.04733122861848848
0.12342799409748713       -0.010243381201786732    -0.009090020662837796    -1.881652880035114E-7    -0.04775757705323888     -0.0067840522460919615   0.006782546923787921     -0.047756071730934824    0.047756071730934824     -0.006782546923787921    0.0067840522460919615    0.04775757705323888
0.12673166279706638       -0.010453106899685555    -0.009254231072089676    9.906776935267731E-8     -0.04866851074456275     -0.006856083145820535    0.0068568756879753435    -0.048669303286717536    0.048669303286717536     -0.0068568756879753435   0.006856083145820535     0.04866851074456275
0.12772511404244674       -0.010525270277225846    -0.00931477894963565     2.127733579842503E-7     -0.048994026309926726    -0.0068929452010233466   0.006894647387887207     -0.04899572849679057     0.04899572849679057      -0.006894647387887207    0.0068929452010233466    0.048994026309926726
0.1289964297301674        -0.010617617470278838    -0.009392261832605824    3.5828195670109235E-7    -0.04941058731054837     -0.006940117429433018    0.006942983685086614     -0.04941345356620194     0.04941345356620194      -0.006942983685086614    0.006940117429433018     0.04941058731054837
0.13262718925585573       -0.010874362298575095    -0.009591501219942091    -2.3468426948623932E-7   -0.05052416699405445     -0.007026717799754057    0.007024840325598154     -0.05052228951989852     0.05052228951989852      -0.007024840325598154    0.007026717799754057     0.05052416699405445
0.13444090990951052       -0.011013374308610565    -0.009689193869252054    -2.868306407257782E-8    -0.051094444957233615    -0.007040947722791348    0.007040718258278756     -0.051094215492720994    0.051094215492720994     -0.007040718258278756    0.007040947722791348     0.051094444957233615
0.13966174399737144       -0.011403934645909976    -0.009996691971739462    -3.1303801226839726E-7   -0.05279919735908743     -0.0071834587754475345   0.007180954471349376     -0.052796693054989255    0.052796693054989255     -0.007180954471349376    0.0071834587754475345    0.05279919735908743
0.14084861901393297       -0.01149216839431996     -0.010070597561907178    -5.559534103289271E-8    -0.053196351855725604    -0.007227678278445771    0.007227233515717497     -0.05319590709299731     0.05319590709299731      -0.007227233515717497    0.007227678278445771     0.053196351855725604
0.14198737304677803       -0.01157682476961885     -0.010141506703711431    1.914095044690565E-7     -0.05357740401235414     -0.007270104933878734    0.007271636209914474     -0.05357893528838986     0.05357893528838986      -0.007271636209914474    0.007270104933878734     0.05357740401235414
0.14511451951819757       -0.01184140444317848     -0.010338920759023058    -3.071523721136945E-7    -0.054700799772914616    -0.007335182000200691    0.007332724781223772     -0.05469834255393768     0.05469834255393768      -0.007332724781223772    0.007335182000200691     0.054700799772914616
0.15034800477119897       -0.012273115879012812    -0.01069481544193496     -4.872079162051392E-7    -0.05663262691549535     -0.00754016339944411     0.007536265736114458     -0.05662872925216568     0.05662872925216568      -0.007536265736114458    0.00754016339944411      0.05663262691549535
0.15101327089021296       -0.012328698963703477    -0.010736326917714917    -3.779942464580425E-7    -0.05686789065753756     -0.007553094802723662    0.007550070848751987     -0.05686486670356587     0.05686486670356587      -0.007550070848751987    0.007553094802723662     0.05686789065753756
0.15170894703402096       -0.01238682281055722     -0.010779735927386385    -2.637883032284172E-7    -0.057113908556486535    -0.007566617314257661    0.0075645070078318236    -0.05711179825006068     0.05711179825006068      -0.0075645070078318236   0.007566617314257661     0.057113908556486535
0.1522253401247905        -0.012432083130433983    -0.01081353195131722     -7.316586754191935E-8    -0.05730505477828982     -0.007576722256553898    0.007576136929613553     -0.057304469451349455    0.057304469451349455     -0.007576136929613553    0.007576722256553898     0.05730505477828982
0.15235424605541037       -0.012444485793513118    -0.010821915647301103    -9.77304632773567E-8     -0.05735510945078268     -0.007577166276730219    0.007576384433023991     -0.057354327607076434    0.057354327607076434     -0.007576384433023991    0.007577166276730219     0.05735510945078268
0.1527580051216081        -0.01248333340618009     -0.010848175054028639    -1.7467167294851082E-7   -0.057511890661137925    -0.007578557036417558    0.007577159663033962     -0.057510493287754295    0.057510493287754295     -0.007577159663033962    0.007578557036417558     0.057511890661137925
0.1530928419674794        -0.012514717692581646    -0.010872387033073853    -1.975469268868854E-7    -0.05764738667209242     -0.007588515901765841    0.007586935526350737     -0.05764580629667729     0.05764580629667729      -0.007586935526350737    0.007588515901765841     0.05764738667209242
0.15357058407968308       -0.01255949650190434     -0.010906932460652444    -2.3018512745671072E-7   -0.05784071112627587     -0.007602725118658502    0.007600883637638839     -0.05783886964525618     0.05783886964525618      -0.007600883637638839    0.007602725118658502     0.05784071112627587
0.15560584842140654       -0.012748161587969972    -0.011049337376903378    -2.944783810287946E-7    -0.05864551322017422     -0.007652866868294335    0.0076505110412460955    -0.058643157393125964    0.058643157393125964     -0.0076505110412460955   0.007652866868294335     0.05864551322017422
0.15996320829790392       -0.013135497966841589    -0.011358027044739472    -6.317503992654862E-7    -0.0603476040694987      -0.007805612202132318    0.007800558198938186     -0.060342550066304526    0.060342550066304526     -0.007800558198938186    0.007805612202132318     0.0603476040694987
0.1636506439197869        -0.013483785016707469    -0.011637498113168079    -2.7870977390123306E-8   -0.06188017585682879     -0.007945035789998892    0.007944812822179763     -0.061879952889009625    0.061879952889009625     -0.007944812822179763    0.007945035789998892     0.06188017585682879
0.16415372680077225       -0.013532584996586503    -0.011674563437490734    1.6606206556232137E-7    -0.062088196057383       -0.007957856071036966    0.007959184567561454     -0.06208952455390746     0.06208952455390746      -0.007959184567561454    0.007957856071036966     0.062088196057383
0.16751749597884977       -0.013877641849680931    -0.011928733964747968    -3.141494731897035E-7    -0.06354274219149858     -0.008032174792774823    0.008029661596989295     -0.063540228995713       0.063540228995713        -0.008029661596989295    0.008032174792774823     0.06354274219149858
0.16781959206768135       -0.013908630993176187    -0.01195156071596535     -3.5727669743986296E-7   -0.06367337324103824     -0.008038849268333457    0.008035991054753928     -0.06367051502745867     0.06367051502745867      -0.008035991054753928    0.008038849268333457     0.06367337324103824
0.16813084574337336       -0.013942166330285175    -0.011976045519646466    -2.452853735732988E-7    -0.06381345036100408     -0.008044785039863361    0.008042822756874766     -0.06381148807801545     0.06381148807801545      -0.008042822756874766    0.008044785039863361     0.06381345036100408
0.17148694270005435       -0.014279506168542578    -0.012248873083865018    1.1466925446835374E-7    -0.0653051729116624      -0.008187148237492045    0.008188065591527781     -0.06530609026569809     0.06530609026569809      -0.008188065591527781    0.008187148237492045     0.0653051729116624
0.17611556082204174       -0.014790313761771024    -0.012630307322907704    -2.6141095480569465E-7   -0.06747259513608443     -0.008311340089000311    0.008309248801361854     -0.06747050384844595     0.06747050384844595      -0.008309248801361854    0.008311340089000311     0.06747259513608443
0.1765811399329762        -0.014841694398247413    -0.012668674673424234    -2.9923975918299506E-7   -0.06769060977580432     -0.00832383218281463     0.008321438264741155     -0.06768821585773081     0.06768821585773081      -0.008321438264741155    0.00832383218281463      0.06769060977580432
0.17860393208285857       -0.015060586066482471    -0.012848078830255984    2.6996412305929267E-8    -0.06866530063808371     -0.0084229563721538      0.008423172343452237     -0.06866551660938212     0.06866551660938212      -0.008423172343452237    0.0084229563721538       0.06866530063808371
0.17882015859933648       -0.01508569423244786     -0.012866369743832356    8.22393273933031E-8      -0.06877016873908325     -0.008427391809291796    0.008428049723910933     -0.06877082665370235     0.06877082665370235      -0.008428049723910933    0.008427391809291796     0.06877016873908325
0.18025155626480235       -0.015247189461645208    -0.012992597274877869    -1.0337068012928527E-7   -0.06947258423064458     -0.008483826384063725    0.008482999418622683     -0.0694717572652035      0.0694717572652035       -0.008482999418622683    0.008483826384063725     0.06947258423064458