% Model:              Cylinder_slice_potential_1.mph
% Version:            COMSOL 6.2.0.415
% Date:               May 17 2024, 18:28
% Dimension:          1
% Nodes:              1059
% Expressions:        11
% Description:        Line graph
% Arc length (m)          Magnetic scalar potential Magnetic scalar potential Magnetic scalar potential Magnetic scalar potential Magnetic scalar potential Magnetic scalar potential Magnetic scalar potential Magnetic scalar potential Magnetic scalar potential Magnetic scalar potential Magnetic scalar potential
0                         -0.0023695396642012365   1.3551280152096403E-6    2.706731794163093E-7     -0.004733931251639176    0.004744227405165762     -0.004742062019730443    -0.004736096637074502    0.004736096637074502     0.004742062019730443     -0.004744227405165762    0.004733931251639176
7.453775780324063E-4      -0.002369559278563368    5.5920903207781495E-6    2.045097613550147E-6     -0.004714161895710198    0.004764075218543266     -0.004747714437634876    -0.004730522676618595    0.004730522676618595     0.004747714437634876     -0.004764075218543266    0.004714161895710198
0.0016923454365420666     -0.0023695477458543094   1.0608693409001613E-5    4.246686784671321E-6     -0.004690282664342926    0.004787908319074304     -0.004753934824796945    -0.004724256158620293    0.004724256158620293     0.004753934824796945     -0.004787908319074304    0.004690282664342926
0.0026634304142817825     -0.002369535919433361    1.5753057976900817E-5    6.504345428540075E-6     -0.004665795283221856    0.00481234839451158      -0.004760313631083269    -0.0047178300466501726   0.0047178300466501726    0.004760313631083269     -0.00481234839451158     0.004665795283221856
0.005726835579966367      -0.0023704522827600084   3.229211297773647E-5     1.3529500344856644E-5    -0.00458991022520738     0.00489189890583265      -0.004783662903073806    -0.004698146227966229    0.004698146227966229     0.004783662903073806     -0.00489189890583265     0.00458991022520738
0.007129893518314925      -0.0023699015013529195   3.86230320122682E-5      1.6577483596165233E-5    -0.00455762397228437     0.0049219820331273       -0.004789362164357988    -0.0046902438410536896   0.0046902438410536896    0.004789362164357988     -0.0049219820331273      0.00455762397228437
0.00734043653523689       -0.002369818851038956    3.957305036645527E-5     1.703486427284169E-5     -0.004552779093887177    0.0049264963102686405    -0.004790217396085917    -0.004689058008069907    0.004689058008069907     0.004790217396085917     -0.0049264963102686405   0.004552779093887177
0.00804231080905514       -0.002369354579087431    4.3228377787453996E-5    1.8632849551722665E-5    -0.004534492626605608    0.004942925689744111     -0.004793862893330339    -0.004683555423019385    0.004683555423019385     0.004793862893330339     -0.004942925689744111    0.004534492626605608
0.008502998315638154      -0.0023689324576698424   4.592858483416486E-5     1.971609415921329E-5     -0.004521214784200335    0.004954515046479029     -0.0047967862932053315   -0.004678943537474037    0.004678943537474037     0.0047967862932053315    -0.004954515046479029    0.004521214784200335
0.01084037828103332       -0.0023667907496132154   5.962856532682769E-5     2.521212825388798E-5     -0.004453847290230394    0.0050133157082224615    -0.004811618682191368    -0.004655544316261495    0.004655544316261495     0.004811618682191368     -0.0050133157082224615   0.004453847290230394
0.0186947860758433        -0.0023637123102409627   1.04243292985138E-4      4.370650679244421E-5     -0.004239868714356734    0.005214980526607113     -0.004865328472267569    -0.004589520768696283    0.004589520768696283     0.004865328472267569     -0.005214980526607113    0.004239868714356734
0.023256265244477003      -0.002361924494095523    1.3015347694097013E-4    5.44471921049887E-5      -0.0041155997889481795   0.005332098187433907     -0.004896520650594007    -0.004551177325788086    0.004551177325788086     0.004896520650594007     -0.005332098187433907    0.0041155997889481795
0.024770104797098784      -0.002360284055285997    1.374101160935142E-4     5.782878448017072E-5     -0.004077022624370768    0.005364113596773216     -0.00490148332093186     -0.0045396529002121305   0.0045396529002121305    0.00490148332093186      -0.005364113596773216    0.004077022624370768
0.03753342840607994       -0.002343021090892453    2.0747125606942685E-4    8.767121399595577E-5     -0.0037129435575928003   0.005659140805977007     -0.004957771094009368    -0.004414313269560444    0.004414313269560444     0.004957771094009368     -0.005659140805977007    0.0037129435575928003
0.03882136237239084       -0.002341279102764375    2.145410542393914E-4     9.068258311799017E-5     -0.0036762047103386128   0.005688911700718882     -0.004963451035774968    -0.0044016653752825315   0.0044016653752825315    0.004963451035774968     -0.005688911700718882    0.0036762047103386128
0.04078569490898763       -0.0023381217213376154   2.2660708179658663E-4    9.54220551106291E-5      -0.0036147339768429518   0.005737752908507506     -0.004974376467622479    -0.004378110417727983    0.004378110417727983     0.004974376467622479     -0.005737752908507506    0.0036147339768429518
0.0428735239910598        -0.002335982758372942    2.3762932307037557E-4    1.0059645517206266E-4    -0.0035566917268465034   0.00578723930664526      -0.0049824676652687645   -0.004361463368223003    0.004361463368223003     0.0049824676652687645    -0.00578723930664526     0.0035566917268465034
0.04809653689151678       -0.002329347682865687    2.655823948506528E-4     1.1302681353762001E-4    -0.003409840927028932    0.00590754980443381      -0.005003335296132856    -0.004314055435329893    0.004314055435329893     0.005003335296132856     -0.00590754980443381     0.003409840927028932
0.053001378993739086      -0.0023158010947913893   2.9212299741672795E-4    1.235392781046146E-4     -0.003261076084914134    0.00600212829425142      -0.005013814069414507    -0.004249390309751051    0.004249390309751051     0.005013814069414507     -0.00600212829425142     0.003261076084914134
0.05335901391938446       -0.002314813349841046    2.9405819659898105E-4    1.2430579095159557E-4    -0.0032502289460787643   0.006009024453285417     -0.005014578125672657    -0.0042446752736915285   0.0042446752736915285    0.005014578125672657     -0.006009024453285417    0.0032502289460787643
0.053594443408993046      -0.002314234942393467    2.953280675476308E-4     1.248685210181218E-4     -0.003243011598071552    0.006013928171502313     -0.005014980003357343    -0.004241959766216526    0.004241959766216526     0.005014980003357343     -0.006013928171502313    0.003243011598071552
0.056052881277215305      -0.0023112087147471733   3.0754797588890324E-4    1.3076362410060225E-4    -0.003176719005425226    0.006068115853563465     -0.005022006860758651    -0.004222827998230044    0.004222827998230044     0.005022006860758651     -0.006068115853563465    0.003176719005425226
0.05655409387707281       -0.0023098441724442127   3.10068972812195E-4      1.3184687884801376E-4    -0.003162093911059783    0.006077282778717065     -0.0050225077479329585   -0.004216868941843892    0.004216868941843892     0.0050225077479329585    -0.006077282778717065    0.003162093911059783
0.059904803619492006      -0.002300721925338347    3.2692235789047105E-4    1.3908866055243517E-4    -0.003064322134795538    0.006138565566557848     -0.00502585628213837     -0.004177031419215019    0.004177031419215019     0.00502585628213837      -0.006138565566557848    0.003064322134795538
0.06064700704030797       -0.002298829777954139    3.305379424543419E-4     1.408314718108857E-4     -0.0030427198413017073   0.006152599270514846     -0.005025947496027763    -0.004169371615788791    0.004169371615788791     0.005025947496027763     -0.006152599270514846    0.0030427198413017073
0.06363549362437666       -0.0022912110350135984   3.4509611567161804E-4    1.4784891193359118E-4    -0.002955738075277976    0.006209106064776415     -0.005026314769307688    -0.004138529370746704    0.004138529370746704     0.005026314769307688     -0.006209106064776415    0.002955738075277976
0.06497950219475666       -0.002288070079322636    3.529327269254695E-4     1.5072309795105917E-4    -0.002914449586064625    0.006237830731225916     -0.005032045947617446    -0.004120234369673096    0.004120234369673096     0.005032045947617446     -0.006237830731225916    0.002914449586064625
0.06593233292978128       -0.0022858433084629428   3.5848846832896227E-4    1.5276074327265647E-4    -0.002885178238848372    0.006258194995003399     -0.00503610904882215     -0.004107264185029622    0.004107264185029622     0.00503610904882215      -0.006258194995003399    0.002885178238848372
0.0666288180851095        -0.0022838910025063486   3.622555401615527E-4     1.543341608302709E-4     -0.002863678741206954    0.006271885268818439     -0.005037211982176275    -0.004098352027849119    0.004098352027849119     0.005037211982176275     -0.006271885268818439    0.002863678741206954
0.0730838530572564        -0.002267626711065846    3.930889739488211E-4     1.6839074800477076E-4    -0.002682423508266144    0.006388083335997238     -0.005040957351959075    -0.004029549492304308    0.004029549492304308     0.005040957351959075     -0.006388083335997238    0.002682423508266144
0.07474798700387687       -0.002264355601577136    4.014289301738156E-4     1.7216661366520222E-4    -0.0026357579579720162   0.006421664448336528     -0.005044331539014914    -0.004013090867293632    0.004013090867293632     0.005044331539014914     -0.006421664448336528    0.0026357579579720162
0.07658714262289272       -0.0022589602127555527   4.1005526251449125E-4    1.763529392498313E-4     -0.0025823428809683057   0.006453497970053904     -0.005042674456055258    -0.003993166394966954    0.003993166394966954     0.005042674456055258     -0.006453497970053904    0.0025823428809683057
0.07891155995219731       -0.002252141249125963    4.20957654989434E-4      1.8164382797855664E-4    -0.0025148342213693973   0.0064937307751344545    -0.005040580151306005    -0.003967984845197849    0.003967984845197849     0.005040580151306005     -0.0064937307751344545   0.0025148342213693973
0.08357369816040733       -0.0022393587099221574   4.4137678123014334E-4    1.917315709266629E-4     -0.0023876607924472326   0.006569774047241394     -0.005035921479828097    -0.003921513359860534    0.003921513359860534     0.005035921479828097     -0.006569774047241394    0.0023876607924472326
0.08374279935716461       -0.0022388843270924872   4.42268993445849E-4      1.9210782319258152E-4    -0.0023825303810771      0.006573006927292845     -0.005036144341752198    -0.003919392966617751    0.003919392966617751     0.005036144341752198     -0.006573006927292845    0.0023825303810771
0.08541307515826149       -0.00223345582014655     4.5138776794883693E-4    1.9591509946293375E-4    -0.0023290879385948543   0.006604735341991344     -0.005037414546287879    -0.003896408734298323    0.003896408734298323     0.005037414546287879     -0.006604735341991344    0.0023290879385948543
0.08685252258753419       -0.0022289333539221566   4.584981371773609E-4     1.9915637815552065E-4    -0.0022857467836901483   0.006629986631998476     -0.005036735606754317    -0.003878997808934312    0.003878997808934312     0.005036735606754317     -0.006629986631998476    0.0022857467836901483
0.08701464689871573       -0.0022283507260124624   4.5921242694277754E-4    1.995123808674195E-4     -0.0022810146477269143   0.006632388256322934     -0.005036289209383583    -0.003877113694666269    0.003877113694666269     0.005036289209383583     -0.006632388256322934    0.0022810146477269143
0.08841150754219453       -0.002223330812645288    4.6536673689221466E-4    2.0257969491550425E-4    -0.002240242634951915    0.006653080615629235     -0.005032443056305207    -0.003860880194275948    0.003860880194275948     0.005032443056305207     -0.006653080615629235    0.002240242634951915
0.08975366109601454       -0.002218641556529851    4.713082932951664E-4     2.0543734010751246E-4    -0.002201608872744153    0.006672957353375249     -0.005029458632515155    -0.0038451075936042516   0.0038451075936042516    0.005029458632515155     -0.006672957353375249    0.002201608872744153
0.09406354326355827       -0.002203583561672673    4.903876362776842E-4     2.1461372236209825E-4    -0.002077549325063899    0.006736784921626789     -0.005019875142730009    -0.003794459103960684    0.003794459103960684     0.005019875142730009     -0.006736784921626789    0.002077549325063899
0.09567487748072924       -0.002198041208096162    4.979762859107998E-4     2.1809245779362018E-4    -0.0020297837272854414   0.006762381105099201     -0.005017641442750246    -0.0037745233896344017   0.0037745233896344017    0.005017641442750246     -0.006762381105099201    0.0020297837272854414
0.09895705817119146       -0.0021876433841438803   5.131063704337159E-4     2.2508363269545262E-4    -0.0019356331262048003   0.006814940410370715     -0.005014271348807101    -0.0037363021877684192   0.0037363021877684192    0.005014271348807101     -0.006814940410370715    0.0019356331262048003
0.10016280086469632       -0.0021832352390673197   5.18375648310398E-4      2.2757789690234522E-4    -0.0019010319455940621   0.006831909010675211     -0.0050112858354564565   -0.0037216551208128223   0.0037216551208128223    0.0050112858354564565    -0.006831909010675211    0.0019010319455940621
0.10494683817175657       -0.0021657449978949687   5.392826146798469E-4     2.3747441386547393E-4    -0.0017637444962884993   0.0068992354952913705    -0.004999440184367587    -0.003663539807212289    0.003663539807212289     0.004999440184367587     -0.0068992354952913705   0.0017637444962884993
0.10689262954599932       -0.0021590932306306317   5.471791844886821E-4     2.4151512069932402E-4    -0.001710588424997919    0.006925784497524603     -0.004993663531930018    -0.0036427093905925098   0.0036427093905925098    0.004993663531930018     -0.006925784497524603    0.001710588424997919
0.10954976590913446       -0.0021491616037448633   5.581490156004609E-4     2.469479571890624E-4     -0.0016360843319320915   0.006960562083047357     -0.004984978425534864    -0.0036116679894445895   0.0036116679894445895    0.004984978425534864     -0.006960562083047357    0.0016360843319320915
0.11240506588898716       -0.002138094934598392    5.696695937476592E-4     2.5259326735320453E-4    -0.001556808018540985    0.006995571719852576     -0.0049748255810269475   -0.0035775541573666195   0.0035775541573666195    0.0049748255810269475    -0.006995571719852576    0.001556808018540985
0.11376988477465594       -0.0021328051229641924   5.75176371578383E-4      2.552916969339299E-4     -0.0015189143434575138   0.007012306148399252     -0.004969972572927819    -0.0035612479189289516   0.0035612479189289516    0.004969972572927819     -0.007012306148399252    0.0015189143434575138
0.116516511203199         -0.0021226681815756793   5.866195447859989E-4     2.609610350455117E-4     -0.001441633588611312    0.0070490391376914       -0.004961350857327313    -0.003529321868975405    0.003529321868975405     0.004961350857327313     -0.0070490391376914      0.001441633588611312
0.1177866609972414        -0.002117242655651835    5.920478168677493E-4     2.635158069318896E-4     -0.0014042786329728607   0.007064691989634473     -0.0049565655341793635   -0.003512405088427976    0.003512405088427976     0.0049565655341793635    -0.007064691989634473    0.0014042786329728607
0.1217176196770655        -0.0021023670498966913   6.070140347867826E-4     2.71331815871201E-4      -0.0012983647319482288   0.007111103467638533     -0.0049404489406689326   -0.0034690192589178345   0.0034690192589178345    0.0049404489406689326    -0.007111103467638533    0.0012983647319482288
0.12493455233237304       -0.002090193474487005    6.192617634127018E-4     2.7772811164507863E-4    -0.001211689212155587    0.007149084685792427     -0.004927259792631807    -0.0034335141053162144   0.0034335141053162144    0.004927259792631807     -0.007149084685792427    0.001211689212155587
0.12529623771920273       -0.0020887920732991882   6.206622026157596E-4     2.784539643659587E-4     -0.0012017816812872613   0.007153386611909487     -0.004925754896981827    -0.003429413396214929    0.003429413396214929     0.004925754896981827     -0.007153386611909487    0.0012017816812872613
0.1255051196789344        -0.0020878844061766304   6.214748590483234E-4     2.788608540288153E-4     -0.0011959008190930275   0.007155636805613489     -0.004924749973382977    -0.0034267876513235486   0.0034267876513235486    0.004924749973382977     -0.007155636805613489    0.0011959008190930275
0.12739837949434632       -0.0020804263235390977   6.29508988120041E-4      2.8291355245069926E-4    -0.0011406714729152718   0.007181033821241112     -0.0049177254016355264   -0.003403979892520865    0.003403979892520865     0.0049177254016355264    -0.007181033821241112    0.0011406714729152718
0.12816274153285975       -0.002077415286595398    6.327525911506173E-4     2.8454974036427286E-4    -0.0011183738382818504   0.007191287308099736     -0.004914889385185563    -0.003394771761196032    0.003394771761196032     0.004914889385185563     -0.007191287308099736    0.0011183738382818504
0.1296928154894537        -0.002069433511277447    6.373776995533064E-4     2.8720681041532434E-4    -0.0010779066822336758   0.0071998273628761066    -0.0049021728795535235   -0.003375561165556269    0.003375561165556269     0.0049021728795535235    -0.0071998273628761066   0.0010779066822336758
0.13062648382272624       -0.00206456294222714     6.401999927077868E-4     2.8882818443797366E-4    -0.0010532131685790237   0.007205038600329531     -0.004894413124825752    -0.003363838644082811    0.003363838644082811     0.004894413124825752     -0.007205038600329531    0.0010532131685790237
0.13270718825730304       -0.0020552073352651484   6.467365551962759E-4     2.9290467705201696E-4    -9.985862967334007E-4    0.007222243044327189     -0.004879005627911064    -0.003341823713149535    0.003341823713149535     0.004879005627911064     -0.007222243044327189    9.985862967334007E-4
0.13298588183716345       -0.0020540876213857523   6.477433125392037E-4     2.934184013115102E-4     -9.91271699907851E-4     0.007225078785635152     -0.004877731575143081    -0.0033386189103999315   0.0033386189103999315    0.004877731575143081     -0.007225078785635152    9.91271699907851E-4
0.13339106937731948       -0.002052459689688515    6.492070187771415E-4     2.941652956932421E-4     -9.806371402726372E-4    0.007229201618481418     -0.004875879252935493    -0.0033339595058185715   0.0033339595058185715    0.004875879252935493     -0.007229201618481418    9.806371402726372E-4
0.13399730036072602       -0.002050227776710647    6.511673872323764E-4     2.9529830634367665E-4    -9.657601663494578E-4    0.007235150940493126     -0.004872764489743724    -0.0033281466170988682   0.0033281466170988682    0.004872764489743724     -0.007235150940493126    9.657601663494578E-4
0.13407596423520646       -0.002049938166104875    6.514217625155919E-4     2.9544532457605064E-4    -9.638297463587708E-4    0.007235922918060724     -0.004872360321452329    -0.0033273923429671735   0.0033273923429671735    0.004872360321452329     -0.007235922918060724    9.638297463587708E-4
0.135346559470425         -0.00204462174971644     6.553988094756115E-4     2.9790323685898617E-4    -9.314341235701007E-4    0.007247052875295656     -0.004863826980423778    -0.0033146600184419876   0.0033146600184419876    0.004863826980423778     -0.007247052875295656    9.314341235701007E-4
0.13935534820400758       -0.0020264578787439645   6.69281779764956E-4      3.0521896673343864E-4    -8.241945512593062E-4    0.007281636963716547     -0.004839885229849049    -0.0032659462851268133   0.0032659462851268133    0.004839885229849049     -0.007281636963716547    8.241945512593062E-4
0.13941678136634952       -0.0020262305723600035   6.695051968682068E-4     3.053475550936598E-4     -8.225553337407478E-4    0.007282366955699262     -0.004839586514949994    -0.003265335774490025    0.003265335774490025     0.004839586514949994     -0.007282366955699262    8.225553337407478E-4
0.14122594134146554       -0.00201953657198182     6.760846608832228E-4     3.091343846448257E-4     -7.742816227346687E-4    0.007303864665192606     -0.0048307895880340115   -0.0032473566998932725   0.0032473566998932725    0.0048307895880340115    -0.007303864665192606    7.742816227346687E-4
0.14176272212226848       -0.0020154403354894004   6.774309333338911E-4     3.0979463008633815E-4    -7.594093506317745E-4    0.007302351991325822     -0.004823994950635127    -0.0032377663913224783   0.0032377663913224783    0.004823994950635127     -0.007302351991325822    7.594093506317745E-4
0.14177784502602303       -0.002015324930854127    6.774688623161255E-4     3.098132314011084E-4     -7.589903491554425E-4    0.007302309374261059     -0.0048238035230522      -0.0032374962003643083   0.0032374962003643083    0.0048238035230522       -0.007302309374261059    7.589903491554425E-4
0.1422509513948093        -0.002013560203250637    6.787986885571346E-4     3.1070153760419443E-4    -7.47918190413091E-4     0.007306322622589449     -0.004820710321755905    -0.003233530491246645    0.003233530491246645     0.004820710321755905     -0.007306322622589449    7.47918190413091E-4
0.14253374239935976       -0.0020131216160495682   6.800354787508183E-4     3.114016437124707E-4     -7.405302209967982E-4    0.007311956243201469     -0.004820743093501713    -0.0032317433706965625   0.0032317433706965625    0.004820743093501713     -0.007311956243201469    7.405302209967982E-4
0.14339505049743245       -0.002011785793120576    6.838024210944408E-4     3.1353398544493535E-4    -7.180283811780873E-4    0.00732911479130421      -0.0048208429077447375   -0.0032263002647375688   0.0032263002647375688    0.0048208429077447375    -0.00732911479130421     7.180283811780873E-4
0.1470683950635153        -0.00199791312339338     6.962284452055767E-4     3.2099709409667897E-4    -6.231525347833121E-4    0.0073684999587902015    -0.0048005232060167775   -0.003191129287556743    0.003191129287556743     0.0048005232060167775    -0.0073684999587902015   6.231525347833121E-4
0.14922802085373862       -0.001981267519276173    7.010963560498355E-4     3.235207465580558E-4     -5.651629841706153E-4    0.007359907092934071     -0.004771741120469634    -0.003153328956635062    0.003153328956635062     0.004771741120469634     -0.007359907092934071    5.651629841706153E-4
0.1493440684291898        -0.001980373067094473    7.013579334275209E-4     3.2365635512077536E-4    -5.620469134232801E-4    0.007359445354954605     -0.004770194513988411    -0.003151297754389483    0.003151297754389483     0.004770194513988411     -0.007359445354954605    5.620469134232801E-4
0.149513841746619         -0.0019797268073578553   7.017920172965606E-4     3.239646896382056E-4     -5.582188042732056E-4    0.007360688425158209     -0.004768970908052573    -0.00314993632137885     0.00314993632137885      0.004768970908052573     -0.007360688425158209    5.582188042732056E-4
0.1535788290061163        -0.001961262506028016    7.117468794131983E-4     3.311705925264255E-4     -4.6260200371073327E-4   0.0073824480204013245    -0.0047330832801899285   -0.003111966743922136    0.003111966743922136     0.0047330832801899285    -0.0073824480204013245   4.6260200371073327E-4
0.15514223090611132       -0.0019542593139661325   7.157330551870116E-4     3.3397579974855126E-4    -4.25416263377023E-4     0.007391620992487503     -0.004719814594499099    -0.0030972226613654318   0.0030972226613654318    0.004719814594499099     -0.007391620992487503    4.25416263377023E-4
0.15519647691642363       -0.001954016321278961    7.158713651968267E-4     3.3407313319806304E-4    -4.2412601417518786E-4   0.007391939270940653     -0.004719354205356155    -0.0030967110797596913   0.0030967110797596913    0.004719354205356155     -0.007391939270940653    4.2412601417518786E-4
0.16403962245023831       -0.0019132659720875102   7.439050633377441E-4     3.491660185463936E-4     -1.9815267997621102E-4   0.007454911208373829     -0.004661583060002684    -0.0029914808283473585   0.0029914808283473585    0.004661583060002684     -0.007454911208373829    1.9815267997621102E-4
0.16417445448102624       -0.001912458010770817    7.442316150144009E-4     3.49360787439264E-4      -1.9477802674137303E-4   0.007455054016341896     -0.004660167716827787    -0.002989664326255484    0.002989664326255484     0.004660167716827787     -0.007455054016341896    1.9477802674137303E-4
0.16438686520391735       -0.0019111851704350009   7.44746055665444E-4      3.496676210684063E-4     -1.8946168960004255E-4   0.0074552789921399605    -0.004657938023592715    -0.0029868026581472916   0.0029868026581472916    0.004657938023592715     -0.0074552789921399605   1.8946168960004255E-4
0.16456028219755245       -0.0019102529845654772   7.452246306881449E-4     3.499619893369002E-4     -1.8498411971891636E-4   0.007456027818542992     -0.004656331903847795    -0.0029846800344141165   0.0029846800344141165    0.004656331903847795     -0.007456027818542992    1.8498411971891636E-4
0.16495149205861578       -0.0019081500747130046   7.463042438460869E-4     3.5062605210840254E-4    -1.748832094541352E-4    0.0074577170893978815    -0.004652708672530665    -0.0029798916263213547   0.0029798916263213547    0.004652708672530665     -0.0074577170893978815   1.748832094541352E-4
0.16501744313792688       -0.0019077806670157289   7.46451147038402E-4      3.507311431736763E-4     -1.732833202215435E-4    0.007457839347841368     -0.004651990202451964    -0.0029791324656109537   0.0029791324656109537    0.004651990202451964     -0.007457839347841368    1.732833202215435E-4
0.1654727788123218        -0.0019052818409243072   7.474594405764004E-4     3.514586087082565E-4     -1.6235092528638466E-4   0.007458776438410841     -0.004647107568744795    -0.002974019794952436    0.002974019794952436     0.004647107568744795     -0.007458776438410841    1.6235092528638466E-4
0.16580984226055728       -0.0019034320782409097   7.482058325589809E-4     3.519971170117931E-4     -1.5425819075770214E-4   0.007459470122205935     -0.004643493186111595    -0.002970235126852046    0.002970235126852046     0.004643493186111595     -0.007459470122205935    1.5425819075770214E-4
0.16718359098868335       -0.0018969234518782894   7.514433635863165E-4     3.542648118797681E-4     -1.2245756547855436E-4   0.0074652362420346       -0.004631117746996462    -0.0029565760605166982   0.0029565760605166982    0.004631117746996462     -0.0074652362420346      1.2245756547855436E-4
0.16881785895422832       -0.001889180522369891    7.552948636001872E-4     3.569625549258474E-4     -8.462623423582774E-5    0.007472095855243732     -0.00461639541583696     -0.0029403266736426053   0.0029403266736426053    0.00461639541583696      -0.007472095855243732    8.462623423582774E-5
0.17695270740566524       -0.0018487305468648533   7.750280269045867E-4     3.7009554851033646E-4    1.0800518102540183E-4    0.0075029273684848125    -0.004542162980402126    -0.002852759207057288    0.002852759207057288     0.004542162980402126     -0.0075029273684848125   -1.0800518102540183E-4
0.17990702034615805       -0.0018329410338366679   7.81540485809138E-4      3.7450106068217463E-4    1.767436324827789E-4     0.007508507767829448     -0.004512499282372056    -0.0028192648529746164   0.0028192648529746164    0.004512499282372056     -0.007508507767829448    -1.767436324827789E-4
0.1831985928972249        -0.0018178177568568125   7.892648418686874E-4     3.7958424247401925E-4    2.5049598178851604E-4    0.007521767009215764     -0.004485093069423615    -0.0027861779580036355   0.0027861779580036355    0.004485093069423615     -0.007521767009215764    -2.5049598178851604E-4
0.18756317583230894       -0.0017967642243594843   7.991414731497084E-4     3.86697769322369E-4      3.506870480196342E-4     0.007537743945457569     -0.004444161790878622    -0.0027428951065593165   0.0027428951065593165    0.004444161790878622     -0.007537743945457569    -3.506870480196342E-4
0.18984292430369262       -0.0017854046037531954   8.037683179409651E-4     3.9019579439424665E-4    4.0127892389349256E-4    0.007542897338906273     -0.004421330983752305    -0.0027202874312604788   0.0027202874312604788    0.004421330983752305     -0.007542897338906273    -4.0127892389349256E-4
0.19114023253626466       -0.0017790484806212543   8.060117029956952E-4     3.918945038931458E-4     4.2751616331716217E-4    0.0075437100858021765    -0.004408554054657015    -0.0027076398678280026   0.0027076398678280026    0.004408554054657015     -0.0075437100858021765   -4.2751616331716217E-4
0.1934359213707063        -0.0017678008214004352   8.099815490910109E-4     3.9490050380255133E-4    4.7394501968237E-4       0.0075451483052841085    -0.004385944274863702    -0.0026852590107380395   0.0026852590107380395    0.004385944274863702     -0.0075451483052841085   -4.7394501968237E-4
0.19650919382926624       -0.0017529802546074288   8.150820296988244E-4     3.992903870763234E-4     5.364471281869116E-4     0.007548368146616623     -0.004354045050006041    -0.002657875968423675    0.002657875968423675     0.004354045050006041     -0.007548368146616623    -5.364471281869116E-4
0.19733783578111883       -0.0017487842186906142   8.167191375935057E-4     4.004304467639374E-4     5.543107624550408E-4     0.007549447637217495     -0.004346004063106001    -0.002649132811656457    0.002649132811656457     0.004346004063106001     -0.007549447637217495    -5.543107624550408E-4