% Model:              Cylinder_slice_potential_4.mph
% Version:            COMSOL 6.2.0.415
% Date:               May 17 2024, 21:56
% Dimension:          1
% Nodes:              1060
% Expressions:        11
% Description:        Line graph
% Arc length (m)          Magnetic scalar potential Magnetic scalar potential Magnetic scalar potential Magnetic scalar potential Magnetic scalar potential Magnetic scalar potential Magnetic scalar potential Magnetic scalar potential Magnetic scalar potential Magnetic scalar potential Magnetic scalar potential
0                         -2.7163301838592335E-7   -1.1237799156787743E-7   -1.2439317680972776E-7   -1.3779727187207807E-6   -2.914406451550225E-7    -7.037047692712729E-7    -3.8282730427114785E-7   3.8282730427114785E-7    7.03704769263304E-7      2.914406451550225E-7     1.3779727187207807E-6
0.0012854488648768748     -2.74105235573881E-7     -4.858851514441361E-5    9.677274024890387E-5     2.407772050912205E-4     2.418736260335375E-4     5.323082959577442E-4     -5.334047169000384E-4    5.334047169000384E-4     -5.323082959577524E-4    -2.418736260335375E-4    -2.407772050912205E-4
0.0029878553858069174     -2.8068293528791513E-7   -1.1278939856416618E-4   2.250999688269479E-4     5.614703137447109E-4     5.625930454858833E-4     0.00123820670512975      -0.0012393294368709      0.0012393294368709       -0.001238206705129758    -5.625930454858833E-4    -5.614703137447109E-4
0.0036264383015861333     -2.794677510456263E-7    -1.3687148816750512E-4   2.7323514617188865E-4    6.817671846829416E-4     6.828850556871444E-4     0.0015029961136880144    -0.001504113984692195    0.001504113984692195     -0.0015029961136880223   -6.828850556871444E-4    -6.817671846829416E-4
0.004096430167012484      -2.8041570770911503E-7   -1.5459498190488764E-4   3.086624748943477E-4     7.70304122447303E-4      7.714257852781596E-4     0.0016978740138766713    -0.001698995676707506    0.001698995676707506     -0.001697874013876679    -7.714257852781596E-4    -7.70304122447303E-4
0.00488397878037216       -2.764264687575781E-7    -1.8428710337804787E-4   3.680246604641645E-4     9.18684478784993E-4      9.197901846600432E-4     0.0020244070990533226    -0.002025512804928351    0.002025512804928351     -0.0020244070990533304   -9.197901846600432E-4    -9.18684478784993E-4
0.005439593308559662      -2.7329199843397604E-7   -2.0523457643771282E-4   4.099057492848634E-4     0.0010233726838294412    0.0010244658518231968    0.0022547801424557604    -0.0022558733104494945   0.0022558733104494945    -0.002254780142455768    -0.0010244658518231968   -0.0010233726838294412
0.010973285798930001      -2.4207396144782173E-7   -4.1386280424997134E-4   8.270241919066944E-4     0.002066024206953964     0.0020669925027997733    0.004549201032453835     -0.004550169328299624    0.004550169328299624     -0.0045492010324538435   -0.0020669925027997733   -0.002066024206953964
0.014028425208349687      -2.2800505196044895E-7   -5.290487457678332E-4    0.0010573000185934984    0.0026415978269665706    0.0026425098471744295    0.005815890301573613     -0.005816802321781453    0.005816802321781453     -0.005815890301573621    -0.0026425098471744295   -0.0026415978269665706
0.018162109893530187      -2.6097753674632026E-7   -6.849188789053893E-4    0.0013689178561394717    0.003420392832768225     0.0034214367429152267    0.007529906106200605     -0.007530950016347588    0.007530950016347588     -0.007529906106200613    -0.0034214367429152267   -0.003420392832768225
0.020015439456496236      -2.757606867618916E-7    -7.548029527349519E-4    0.0015086311131138088    0.0037695640728768534    0.0037706671156239172    0.008298381789286609     -0.008299484832033655    0.008299484832033655     -0.008298381789286617    -0.0037706671156239172   -0.0037695640728768534
0.02349096492829305       -2.1573687892435144E-7   -8.857536536684887E-4    0.001770553648910348     0.004424522160878076     0.0044253851083937866    0.009739044082889056     -0.009739907030404747    0.009739907030404747     -0.009739044082889066    -0.0044253851083937866   -0.004424522160878076
0.02403149010265955       -2.1188582862054765E-7   -9.061262158580175E-4    0.001811298486604159     0.004526391527185341     0.004527239070499837     0.009963148822333493     -0.009963996365647971    0.009963996365647971     -0.009963148822333503    -0.004527239070499837    -0.004526391527185341
0.025173558938872354      -2.0374899291478638E-7   -9.491711460367777E-4    0.001897387741228031     0.004741630028815959     0.004742445024787632     0.010436656905036673     -0.010437471901008327    0.010437471901008327     -0.010436656905036684    -0.004742445024787632    -0.004741630028815959
0.029013812590414224      -1.7224910380787774E-7   -0.0010938599175828948   0.0021868942745427774    0.005465652847214805     0.005466341843630049     0.01202881235271223      -0.012029501349127447    0.012029501349127447     -0.012028812352712236    -0.005466341843630049    -0.005465652847214805
0.029358308076721996      -1.6942336087493977E-7   -0.0011068394322816285   0.002212864875193986     0.005530602357209304     0.0055312800506528165    0.01217163895089913      -0.012172316644342616    0.012172316644342616     -0.012171638950899137    -0.0055312800506528165   -0.005530602357209304
0.037616778826410596      -9.47738062268443E-8     -0.0014181195556691613   0.002835409362147687     0.007087089233970803     0.007087468329195722     0.015595806567985834     -0.015596185663210718    0.015596185663210718     -0.015595806567985844    -0.007087468329195722    -0.007087089233970803
0.0384949168903927        -8.754468237769675E-8    -0.0014512138655192208   0.0029016130752985182    0.007252635615271646     0.007252985794001168     0.015959918808387034     -0.015960268987116524    0.015960268987116524     -0.015959918808387045    -0.007252985794001168    -0.007252635615271646
0.04394125025460427       -2.2914953636115894E-7   -0.001656427151531626    0.0033123111786906865    0.00827950496109514      0.008280421559240596     0.01821806787028496      -0.018218984468430365    0.018218984468430365     -0.018218067870284967    -0.008280421559240596    -0.00827950496109514
0.04584457787812237       -1.8580664529158373E-7   -0.001728183152877131    0.003455855061597573     0.008638499174468309     0.008639242401049485     0.019007598091731158     -0.01900834131831229     0.01900834131831229      -0.019007598091731165    -0.008639242401049485    -0.008638499174468309
0.04721242673224146       -1.5465776521904058E-7   -0.0017797514498974808   0.003559014566731568     0.008896494601703385     0.008897113232764271     0.019575003301088332     -0.019575621932149175    0.019575621932149175     -0.019575003301088342    -0.008897113232764271    -0.008896494601703385
0.048686488285724985      -1.1394566286442563E-7   -0.0018352995836351002   0.0036702440561144902    0.009174849582226925     0.009175305364878393     0.02018664708403759      -0.020187102866689018    0.020187102866689018     -0.0201866470840376      -0.009175305364878393    -0.009174849582226925
0.053309502999847075      -1.9910151176664995E-7   -0.0020092917928562293   0.004019087538327196     0.010048076571716557     0.010048872977763634     0.022103827328853996     -0.02210462373490103     0.02210462373490103      -0.02210382732885401     -0.010048872977763634    -0.010048076571716557
0.05381253629856464       -2.0505953197398434E-7   -0.0020282271963762556   0.004057044650429512     0.010143086893525322     0.010143907131653227     0.022312450071782917     -0.022313270309910777    0.022313270309910777     -0.022312450071782928    -0.010143907131653227    -0.010143086893525322
0.05445049859453943       -2.1261567638951487E-7   -0.002052241657318786    0.004105183027048116     0.010263581904883317     0.010264432367588883     0.02257703184879609      -0.022577882311501617    0.022577882311501617     -0.0225770318487961      -0.010264432367588883    -0.010263581904883317
0.05451865471913899       -2.1383446901112235E-7   -0.002054810027318527    0.004110325590518573     0.01027644461118068      0.010277299949056733     0.022605304775091904     -0.022606160112967916    0.022606160112967916     -0.02260530477509191     -0.010277299949056733    -0.01027644461118068
0.054595920974323975      -2.1191459985611796E-7   -0.0020577164108598845   0.004116146020180521     0.010291011018942706     0.01029185867734214      0.022637309484102083     -0.02263815714250147     0.02263815714250147      -0.02263730948410209     -0.01029185867734214     -0.010291011018942706
0.0550621896433637        -2.003290139688995E-7    -0.0020752551874228674   0.004151269813681557     0.010378913034429681     0.010379714350485566     0.022830444158966956     -0.022831245475022792    0.022831245475022792     -0.02283044415896696     -0.010379714350485566    -0.010378913034429681
0.05689349002162292       -1.7396523928776944E-7   -0.002144199186507712    0.004289386227321213     0.010724599419283134     0.010725295280240296     0.023589794538329472     -0.02359049039928659     0.02359049039928659      -0.023589794538329482    -0.010725295280240296    -0.010724599419283134
0.057349483893610324      -1.7107031469872726E-7   -0.0021613624169644057   0.004323770506335636     0.010810652633819924     0.01081133691507873      0.023778827135606424     -0.023779511416865184    0.023779511416865184     -0.02377882713560643     -0.01081133691507873     -0.010810652633819924
0.06343543965851209       -1.32432990661112E-7     -0.002390432735139947    0.004782682816226498     0.011959168193504824     0.011959697925467479     0.02630176460434457      -0.02630229433630718     0.02630229433630718      -0.02630176460434458     -0.011959697925467479    -0.011959168193504824
0.06505186838482893       -1.1373021145282453E-7   -0.0024512483500086844   0.004904699914128838     0.012264827146066389     0.01226528206691221      0.02697231724611856      -0.026972772166964337    0.026972772166964337     -0.026972317246118566    -0.01226528206691221     -0.012264827146066389
0.0652591350786397        -1.161055913951757E-7    -0.0024590381771838164   0.004920346132135628     0.012304037785808266     0.012304502208173855     0.02705826684891123      -0.027058731271276778    0.027058731271276778     -0.027058266848911234    -0.012304502208173855    -0.012304037785808266
0.07030556462863778       -1.739401972029967E-7    -0.002648701134233035    0.005301292706056785     0.013258719541133626     0.013259415301922449     0.029150926346531894     -0.029151622107320675    0.029151622107320675     -0.0291509263465319      -0.013259415301922449    -0.013258719541133626
0.07235222459788515       -1.6642975549145895E-7   -0.002725775326547392    0.0054558175694207       0.013645611438529638     0.01364627715755161      0.030000263397814052     -0.030000929116835988    0.030000929116835988     -0.030000263397814062    -0.01364627715755161     -0.013645611438529638
0.07496934260271579       -1.4315981530905287E-7   -0.0028242909704021615   0.005653623180052081     0.014141333489371216     0.01414190612863246      0.03108707931178424      -0.03108765195104545     0.03108765195104545      -0.03108707931178425     -0.01414190612863246     -0.014141333489371216
0.0755680372564864        -1.286872403053499E-7    -0.0028468374264740684   0.005698879863989695     0.014254749802055962     0.014255264551017192     0.03133577436090043      -0.03133628910986162     0.03133628910986162      -0.03133577436090044     -0.014255264551017192    -0.014254749802055962
0.07559617811602246       -1.313540440360208E-7    -0.002847892560230838    0.005701001722218321     0.014260066500092696     0.01426059191626885      0.031347421861477785     -0.0313479472776539      0.0313479472776539       -0.03134742186147779     -0.01426059191626885     -0.014260066500092696
0.07575690582830075       -1.4658560660310788E-7   -0.0028539190014152667   0.005713120805447788     0.014290433046332143     0.014291019388758564     0.031413947054823796     -0.031414533397250186    0.031414533397250186     -0.0314139470548238      -0.014291019388758564    -0.014290433046332143
0.07869318419556612       -2.626149191160116E-7    -0.0029642027665812325   0.005934958540101755     0.014846700630825084     0.014847751090501557     0.032631917230312536     -0.03263296768998897     0.03263296768998897      -0.03263191723031254     -0.014847751090501557    -0.014846700630825084
0.0795074467364157        -2.947911336988022E-7    -0.0029947856771933927   0.005996476603065207     0.015000959798413243     0.01500213896294805      0.03296967386157365      -0.03297085302610842     0.03297085302610842      -0.032969673861573665    -0.01500213896294805     -0.015000959798413243
0.08263838865959572       -3.0947453986856816E-7   -0.0031123792585595715   0.006232761008977346     0.01559328731115093      0.01559452520931041      0.03426756286250841      -0.034268800760667864    0.034268800760667864     -0.03426756286250842     -0.01559452520931041     -0.01559328731115093
0.08280338994606906       -3.0923927607826E-7      -0.003118594876710097    0.0062452203587041386    0.015624478326134108     0.015625715283238424     0.03433604758639474      -0.03433728454349903     0.03433728454349903      -0.03433604758639475     -0.015625715283238424    -0.015624478326134108
0.08385765986041821       -3.077360663681169E-7    -0.0031583093501862747   0.006324828935401105     0.015823772218912863     0.01582500316317834      0.03477362832003056      -0.034774859264296014    0.034774859264296014     -0.03477362832003057     -0.01582500316317834     -0.015823772218912863
0.08623649327275042       -2.654236484428765E-7    -0.0032478347591350393   0.0065045240569690625    0.016274061103174246     0.01627512279776802      0.035761069657984534     -0.03576213135257828     0.03576213135257828      -0.03576106965798454     -0.01627512279776802     -0.016274061103174246
0.08861175725220956       -2.2317472018218453E-7   -0.0033372258354583996   0.006683949546510358     0.016723674330225872     0.016724567029106602     0.036747029342976315     -0.03674792204185703     0.03674792204185703      -0.03674702934297633     -0.016724567029106602    -0.016723674330225872
0.09194751069867622       -2.8947220705137024E-7   -0.003462673047690487    0.006934977887552818     0.017351313462725716     0.017352471351553926     0.038127351748868686     -0.03812850963769687     0.03812850963769687      -0.0381273517488687      -0.017352471351553926    -0.017351313462725716
0.09199145228553532       -2.8933168372424406E-7   -0.0034643225199659285   0.006938294520929016     0.01735963186045084      0.017360789187185737     0.03814556698024646      -0.03814672430698133     0.03814672430698133      -0.03814556698024647     -0.017360789187185737    -0.01735963186045084
0.09740230975929987       -2.8387324679849085E-7   -0.0036669299192803122   0.007349390846062863     0.018396205879916944     0.018397341372904132     0.04039778539559886      -0.04039892088858603     0.04039892088858603      -0.04039778539559886     -0.018397341372904132    -0.018396205879916944
0.09750459229047531       -2.822497405007354E-7    -0.003670787572589429    0.007357128222445077     0.01841558567253105      0.018416714671493046     0.040440311108067666     -0.040441440107029644    0.040441440107029644     -0.040440311108067666    -0.018416714671493046    -0.01841558567253105
0.09806962381222006       -2.7328112950264125E-7   -0.003692098110122719    0.0073998712158117146    0.018522643970619722     0.01852373709513773      0.04067523263135608      -0.040676325755874064    0.040676325755874064     -0.04067523263135608     -0.01852373709513773     -0.018522643970619722
0.10115446023905889       -3.40496937183894E-7     -0.0038083605243781605   0.007632349987104523     0.01910363738140928      0.019104999369158007     0.04195380052767829      -0.041955162515427       0.041955162515427        -0.041953800527678296    -0.019104999369158007    -0.01910363738140928
0.10177435880771112       -3.553610284773832E-7    -0.003831665683509438    0.00767937532910821      0.019221793543847614     0.019223214987961507     0.04221178764490428      -0.042213209089018155    0.042213209089018155     -0.04221178764490429     -0.019223214987961507    -0.019221793543847614
0.10679482561518293       -4.757431050556877E-7    -0.004020410719839842    0.00806022661765502      0.0201787228248905       0.0201806257973107       0.044301187143929596     -0.04430309011634975     0.04430309011634975      -0.044301187143929596    -0.0201806257973107      -0.0201787228248905
0.10752749037223054       -4.473134400533169E-7    -0.004047952575699235    0.008115662155368885     0.020317896267497793     0.020319685521257985     0.04460561172169325      -0.0446074009754534      0.0446074009754534       -0.04460561172169325     -0.020319685521257985    -0.020317896267497793
0.10804157091939098       -4.4716873025251026E-7   -0.004067197813797832    0.008154689413197825     0.020416269873937354     0.020418058548858344     0.04481945675672439      -0.04482124543164534     0.04482124543164534      -0.04481945675672439     -0.020418058548858344    -0.020416269873937354
0.11266084209753544       -3.444174181568789E-7    -0.004240165187820771    0.00850508073721591      0.021299138550565058     0.021300516220237667     0.04674012967748972      -0.0467415073471623      0.0467415073471623       -0.04674012967748972     -0.021300516220237667    -0.021299138550565058
0.11490404309822941       -2.437045686243407E-7    -0.004324808475354855    0.008675367629474913     0.02172655768269787      0.021727532500972355     0.047675408534827046     -0.0476763833531015      0.0476763833531015       -0.047675408534827046    -0.021727532500972355    -0.02172655768269787
0.11698535693224102       -1.5025995669259605E-7   -0.004403343232269821    0.008833365269677401     0.02212313086198678      0.022123731901813534     0.04854319025560575      -0.04854379129543249     0.04854379129543249      -0.04854319025560575     -0.022123731901813534    -0.02212313086198678
0.12172702111395163       -2.59348445924199E-7     -0.004581292608944261    0.00919480305152034      0.02303481568235674      0.02303585307614043      0.05052257133602235      -0.050523608729806005    0.050523608729806005     -0.05052257133602235     -0.02303585307614043     -0.02303481568235674
0.12403638965971983       -3.1247863736805644E-7   -0.004667960638876898    0.009370836826299214     0.023478840431291444     0.023480090345840907     0.05148660426455287      -0.05148785417910231     0.05148785417910231      -0.05148660426455287     -0.023480090345840907    -0.023478840431291444
0.12413563114010576       -3.1523590718204166E-7   -0.004671683997941553    0.009378378027136267     0.02349782964290607      0.023499090586534783     0.05152793363055543      -0.05152919457418412     0.05152919457418412      -0.05152793363055543     -0.023499090586534783    -0.02349782964290607
0.12431744781593375       -3.2549905609687904E-7   -0.004678518176786631    0.009392204326315084     0.02353261177678827      0.023533913773012647     0.051603720837508096     -0.05160502283373245     0.05160502283373245      -0.051603720837508096    -0.023533913773012647    -0.02353261177678827
0.1264432234922515        -3.93833027196266E-7     -0.004758346170102299    0.009553737193720864     0.023939122598522183     0.023940697930630958     0.05248919961913603      -0.052490774951244774    0.052490774951244774     -0.05248919961913603     -0.023940697930630958    -0.023939122598522183
0.1265616708634917        -3.907876117594707E-7    -0.004762752279600781    0.009562739732610246     0.023961920516415137     0.023963483666862163     0.052538434194019865     -0.05253999734446688     0.05253999734446688      -0.052538434194019865    -0.023963483666862163    -0.023961920516415137
0.12791937443577098       -3.55879522417657E-7     -0.00481325733128159     0.00966593137866973      0.024223241761789333     0.024224665279878994     0.053102785749478916     -0.05310420926756855     0.05310420926756855      -0.053102785749478916    -0.024224665279878994    -0.024223241761789333
0.12867249726366886       -3.5003606023554205E-7   -0.004841581594241943    0.00972331221221534      0.02436780399401508      0.02436920413825601      0.05341729355946678      -0.053418693703707686    0.053418693703707686     -0.05341729355946678     -0.02436920413825601     -0.02436780399401508
0.12987352836127555       -3.26535368742912E-7     -0.00488641436930704     0.009814952589546273     0.024599914179526495     0.024601220321001455     0.053918400395368785     -0.05391970653684371     0.05391970653684371      -0.053918400395368785    -0.024601220321001455    -0.024599914179526495
0.13008528713795148       -3.223918643062708E-7    -0.004894319021919026    0.009831110084748844     0.024640838489509705     0.024642128056966913     0.054006752621023904     -0.054008042188481084    0.054008042188481084     -0.054006752621023904    -0.024642128056966913    -0.024640838489509705
0.1313073367065954        -3.234783132174062E-7    -0.004940429374270401    0.00992450616563368      0.024876089583097095     0.02487738349634995      0.05451866582871955      -0.05451995974197238     0.05451995974197238      -0.05451866582871955     -0.02487738349634995     -0.024876089583097095
0.13820264277399866       -3.932314200238583E-7    -0.005200500909689535    0.010450908064252374     0.026201343065100864     0.026202915990780954     0.057404348523238106     -0.05740592144891818     0.05740592144891818      -0.05740434852323811     -0.026202915990780954    -0.026201343065100864
0.13860683986469483       -3.192261011494352E-7    -0.00521564280707751     0.010481828048459015     0.026279745320401244     0.026281022224805838     0.05757360216286634      -0.05757487906727092     0.05757487906727092      -0.05757360216286635     -0.026281022224805838    -0.026279745320401244
0.13929794421794925       -1.9269031151770651E-7   -0.005241532729202728    0.010534695662253478     0.0264137990807827       0.026414569842028765     0.057862995455999114     -0.05786376621724516     0.05786376621724516      -0.057862995455999114    -0.026414569842028765    -0.0264137990807827
0.1436603308134978        -1.8616438973323185E-7   -0.005406001535286965    0.01086865913322929      0.027256259598276815     0.02725700425583574      0.059692268809998644     -0.05969301346755754     0.05969301346755754      -0.059692268809998644    -0.02725700425583574     -0.027256259598276815
0.1440092132723009        -2.4850274410944686E-7   -0.0054190997497407505   0.010895386517526758     0.027323749815396578     0.027324743826373003     0.05983834831384112      -0.059839342324817524    0.059839342324817524     -0.05983834831384112     -0.027324743826373003    -0.027323749815396578
0.14448143866133734       -3.328800262123393E-7    -0.005436828670355854    0.010931563026632712     0.027415100335410884     0.027416431855515722     0.06003607235754604      -0.06003740387765087     0.06003740387765087      -0.060036072357546044    -0.027416431855515722    -0.027415100335410884
0.14773278828432848       -3.786254928990956E-7    -0.005559395337851188    0.011180694874795278     0.028043836234641767     0.028045350736613354     0.06140020826174893      -0.06140172276372051     0.06140172276372051      -0.06140020826174895     -0.028045350736613354    -0.028043836234641767
0.14816265945143525       -2.996870133830233E-7    -0.005575501051598016    0.011213705783043926     0.028127720603354903     0.028128919351408425     0.06158072691294303      -0.061581925660996545    0.061581925660996545     -0.06158072691294304     -0.028128919351408425    -0.028127720603354903
0.1485106012979471        -2.3579345078719694E-7   -0.005588537170810613    0.011240425128861819     0.028195617416113875     0.02819656058991702      0.06172684044097759      -0.06172778361478072     0.06172778361478072      -0.06172684044097761     -0.02819656058991702     -0.028195617416113875
0.15219699547901291       -2.2828548655350392E-7   -0.005727537349424317    0.01152372632040053      0.028911836662356073     0.02891274980430228      0.063277060758902        -0.0632779739008482      0.0632779739008482       -0.06327706075890203     -0.02891274980430228     -0.028911836662356073
0.15232730051296686       -2.5149794560026144E-7   -0.005732430049355       0.011533747276716196     0.028937195962908585     0.028938201954690983     0.06333177625903862      -0.06333278225082101     0.06333278225082101      -0.06333177625903864     -0.028938201954690983    -0.028937195962908585
0.1527624707741205        -3.290189097476993E-7    -0.005748769844081075    0.01156721353695629      0.029021886577762446     0.029023202653401428     0.06351450564224892      -0.0635158217178879      0.0635158217178879       -0.06351450564224893     -0.029023202653401428    -0.029021886577762446
0.1562333785729854        -6.53864752556741E-7     -0.005879484997459569    0.011831883089290743     0.02968776963527915      0.02969038509428937      0.06496467962003659      -0.0649672950790468      0.0649672950790468       -0.0649646796200366      -0.02969038509428937     -0.02968776963527915
0.15726293379465833       -6.461384415734587E-7    -0.005918436516002511    0.011911300648764925     0.029888600770169027     0.029891185323935313     0.06539921986618413      -0.0654018044199504      0.0654018044199504       -0.06539921986618413     -0.029891185323935313    -0.029888600770169027
0.16073366014452797       -4.052026773704179E-7    -0.006050480347167868    0.01218227167802728      0.03057683526525077      0.03057845607596025      0.06687971734825801      -0.06688133815896748     0.06688133815896748      -0.06687971734825802     -0.03057845607596025     -0.03057683526525077
0.16131954024549175       -4.5929900517808326E-7   -0.0060725590060977525   0.012227617654637013     0.03069187500224444      0.030693712198265145     0.06712722903883099      -0.06712906623485168     0.06712906623485168      -0.06712722903883099     -0.030693712198265145    -0.03069187500224444
0.16138918204480027       -4.588519222755371E-7    -0.006075203732085848    0.012233004014091355     0.030705487156263332     0.030707322563952432     0.06715670954877845      -0.06715854495646753     0.06715854495646753      -0.06715670954877845     -0.030707322563952432    -0.030705487156263332
0.1674415813813344        -4.1999703498602284E-7   -0.006305050432983744    0.012701119409033509     0.03188848634311284      0.03189016633125279      0.06971878894101534      -0.06972046892915526     0.06972046892915526      -0.06971878894101534     -0.03189016633125279     -0.03188848634311284
0.16950481879168847       -2.0398587569821496E-7   -0.006382792433071924    0.012860789242868518     0.03229437170050689      0.03229518764400969      0.07059112629893849      -0.07059194224244125     0.07059194224244125      -0.07059112629893849     -0.03229518764400969     -0.03229437170050689
0.17368611157065614       -1.6315998765878686E-7   -0.006541659677170169    0.013185835645258543     0.03311803722954834      0.03311868986949898      0.0723679952925694       -0.07236864793252003     0.07236864793252003      -0.0723679952925694      -0.03311868986949898     -0.03311803722954834
0.1751385842516799        -1.879248137707742E-7    -0.006596280495241597    0.013299242746269712     0.033407753649726514     0.033408505348981606     0.07298543662117615      -0.07298618832043122     0.07298618832043122      -0.07298543662117615     -0.033408505348981606    -0.033407753649726514
0.17746057018905376       -1.7207882733737573E-7   -0.006685274529304639    0.013480784030634112     0.03386696837696786      0.03386765669227722      0.07397861555279574      -0.07397930386810508     0.07397930386810508      -0.07397861555279575     -0.03386765669227722     -0.03386696837696786
0.1795732958033189        -1.5766090133603717E-7   -0.006766248307937606    0.01364596458377607      0.03428479808948879      0.03428542873309414      0.07488228793711446      -0.0748829185807198      0.0748829185807198       -0.07488228793711448     -0.03428542873309414     -0.03428479808948879
0.18211892007288588       -1.9477215171163442E-7   -0.006862961373147261    0.013845792135266023     0.034793894877318876     0.03479467396592573      0.07597166311620247      -0.07597244220480934     0.07597244220480934      -0.0759716631162025      -0.03479467396592573     -0.034793894877318876
0.183617515263116         -2.4621074641546043E-7   -0.006919791239082552    0.013963289775847558     0.03509329296464973      0.03509427780763541      0.07661204039914507      -0.07661302524213075     0.07661302524213075      -0.0766120403991451      -0.03509427780763541     -0.03509329296464973
0.1869428552303214        -3.60351520348728E-7     -0.007045895090047483    0.0142240136876987       0.03575764877761164      0.03575909018369305      0.07803301931789655      -0.07803446072397797     0.07803446072397797      -0.07803301931789658     -0.03575909018369305     -0.03575764877761164
0.18893495550762127       -3.026120746613589E-7    -0.007122469389408479    0.014380886155617447     0.03615553123009502      0.036156741678393674     0.07889034756654591      -0.07889155801484458     0.07889155801484458      -0.07889034756654593     -0.036156741678393674    -0.03615553123009502
0.1894439339210898        -3.087870047550064E-7    -0.007142181455959644    0.014420698706470125     0.03625563288399205      0.036256868032011086     0.07910872161974994      -0.079109956767769       0.079109956767769        -0.07910872161974997     -0.036256868032011086    -0.03625563288399205