% Model:              Cylinder_slice_potential_6.mph
% Version:            COMSOL 6.2.0.415
% Date:               May 21 2024, 17:43
% Dimension:          1
% Nodes:              756
% Expressions:        11
% Description:        Line graph
% Arc length (m)          Magnetic scalar potential Magnetic scalar potential Magnetic scalar potential Magnetic scalar potential Magnetic scalar potential Magnetic scalar potential Magnetic scalar potential Magnetic scalar potential Magnetic scalar potential Magnetic scalar potential Magnetic scalar potential
0                         3.791556553400403E-6     -0.02417662599365898     -3.823529067585571E-7    -0.07252382427949716     -0.0725389905057108      0.07253593168245667      -0.07252076545624307     0.07252076545624307      -0.07253593168245667     0.0725389905057108       0.07252382427949716
2.275795991423619E-5      3.123608996296372E-6     -0.024176596041051414    -3.5056348854190615E-7   -0.0725249431591158      -0.07253743759510102     0.07253463308719263      -0.07252213865120744     0.07252213865120744      -0.07253463308719263     0.07253743759510102      0.0725249431591158
0.002108394532923428      -4.906790543358428E-5    -0.024181508919320336    1.4441408547409692E-7    -0.07264208491248626     -0.07244581329075196     0.07244696860343569      -0.07264324022517002     0.07264324022517002      -0.07244696860343569     0.07244581329075196      0.07264208491248626
0.0081658370902744        -1.986550152530075E-4    -0.024188591691494142    -8.328067999919425E-6    -0.07299639737698811     -0.0722017773159761      0.07213515277197671      -0.07292977283298872     0.07292977283298872      -0.07213515277197671     0.0722017773159761       0.07299639737698811
0.008336174673244878      -2.0286146153606117E-4   -0.02418879086173495     -8.566317410709997E-6    -0.0730063607779198      -0.07219491493177557     0.07212638439248986      -0.07293783023863408     0.07293783023863408      -0.07212638439248986     0.07219491493177557      0.0730063607779198
0.009150821706630558      -2.2655218915632253E-4   -0.024189611034219655    -8.650261620067094E-6    -0.07305653852745185     -0.0721503297708266      0.07208112767786602      -0.07298733643449129     0.07298733643449129      -0.07208112767786602     0.0721503297708266       0.07305653852745185
0.01264730405110355       -3.3335014766819354E-4   -0.02419636046257405     -3.769841534257777E-6    -0.07327086104919554     -0.07193746045852281     0.07190730172624868      -0.07324070231692142     0.07324070231692142      -0.07190730172624868     0.07193746045852281      0.07327086104919554
0.01579734257733326       -4.249943647480003E-4    -0.024210081404092323    -5.620838231296353E-6    -0.07350271629469814     -0.07180273883570618     0.07175777212985575      -0.07345774958884771     0.07345774958884771      -0.07175777212985575     0.07180273883570618      0.07350271629469814
0.016551782289411707      -4.46390570444859E-4     -0.0242137779575259      -5.36167452227015E-6     -0.07355556171155647     -0.07176999942977708     0.07172710603359887      -0.07351266831537825     0.07351266831537825      -0.07172710603359887     0.07176999942977708      0.07355556171155647
0.017460472604618794      -4.721613836558323E-4    -0.0242182302977871      -5.049522936563631E-6    -0.0736192117524192      -0.07173056621779589     0.07169017003430334      -0.07357881556892665     0.07357881556892665      -0.07169017003430334     0.07173056621779589      0.0736192117524192
0.022268385898311996      -5.901512095283557E-4    -0.0242424623940787      -2.246849742925565E-6    -0.07391667700026451     -0.0715560721621511      0.07153809736420766      -0.07389870220232106     0.07389870220232106      -0.07153809736420766     0.0715560721621511       0.07391667700026451
0.028814930172316428      -7.62888086206113E-4     -0.024295626743746312    -1.0656152033569537E-6   -0.07441691886446457     -0.07136536651964012     0.07135684159801323      -0.07440839394283766     0.07440839394283766      -0.07135684159801323     0.07136536651964012      0.07441691886446457
0.03022254448153227       -7.983909010544166E-4    -0.024305621136592064    -1.7678317191390507E-7   -0.07451435234457264     -0.07132078874035498     0.07131937447497966      -0.0745129380791973      0.0745129380791973       -0.07131937447497966     0.07132078874035498      0.07451435234457264
0.03308044375469152       -8.822566358397757E-4    -0.024330887517480713    -5.330144735070831E-7    -0.07475930788201567     -0.07123028133865658     0.0712260172228685       -0.07475504376622759     0.07475504376622759      -0.0712260172228685      0.07123028133865658      0.07475930788201567
0.033479987457998094      -8.939813409654497E-4    -0.024334419840500006    -5.828167792808702E-7    -0.07479355347054802     -0.07121762810668623     0.07121296557245194      -0.07478889093631373     0.07478889093631373      -0.07121296557245194     0.07121762810668623      0.07479355347054802
0.03414746974649444       -9.131846162163919E-4    -0.02433991726115712     -4.052782564498496E-7    -0.0748477421289299      -0.07119500366406435     0.07119176143801272      -0.07484449990287827     0.07484449990287827      -0.07119176143801272     0.07119500366406435      0.0748477421289299
0.035307298293994205      -9.447459015637766E-4    -0.024353746569857962    -3.5696192782966246E-7   -0.07495215936041273     -0.07117317575415763     0.07117032005873496      -0.07494930366499006     0.07494930366499006      -0.07117032005873496     0.07117317575415763      0.07495215936041273
0.03568113813115822       -9.54675001018693E-4     -0.024358133686422704    -3.943407092276236E-7    -0.07498532842414238     -0.07116662842006762     0.07116347369439377      -0.07498217369846852     0.07498217369846852      -0.07116347369439377     0.07116662842006762      0.07498532842414238
0.048893777731439096      -0.0013055996473816305   -0.024513187761167964    -1.715420803461145E-6    -0.07615762426148098     -0.07093522567195445     0.07092150230552677      -0.07614390089505327     0.07614390089505327      -0.07092150230552677     0.07093522567195445      0.07615762426148098
0.050834466888370095      -0.0013565302284780285   -0.024535060707488978    -1.7918352485610417E-6   -0.07632540992041721     -0.07089928900650509     0.07088495432451661      -0.0763110752384287      0.0763110752384287       -0.07088495432451661     0.07089928900650509      0.07632540992041721
0.05108252425457897       -0.0013626381593895133   -0.024538170134394445    -1.6780441552947353E-6   -0.07634649889858351     -0.07089594626102545     0.07088252190778309      -0.07633307454534112     0.07633307454534112      -0.07088252190778309     0.07089594626102545      0.07634649889858351
0.051414325891651125      -0.0013708839621899911   -0.024543624780680673    -1.8339385596545694E-6   -0.07637997802066059     -0.07089644217190062     0.07088177066342338      -0.07636530651218333     0.07636530651218333      -0.07088177066342338     0.07089644217190062      0.07637997802066059
0.05145061877929227       -0.0013718404013971887   -0.02454418583406533     -1.8127627060212534E-6   -0.07638348935581442     -0.07089612775022566     0.07088162564857749      -0.07636898725416623     0.07636898725416623      -0.07088162564857749     0.07089612775022566      0.07638348935581442
0.05596816463731408       -0.0014908928731003474   -0.024614022778952183    8.230950636094896E-7     -0.0768205617028028      -0.07085699021040143     0.07086357497091028      -0.07682714646331165     0.07682714646331165      -0.07086357497091028     0.07085699021040143      0.0768205617028028
0.0591136982641023        -0.001576763417151675    -0.024660744279984124    2.3027331158697503E-6    -0.07712654874179223     -0.07081949507318556     0.07083791693811248      -0.07714497060671917     0.07714497060671917      -0.07083791693811248     0.07081949507318556      0.07712654874179223
0.0634583895163315        -0.0016963629628704707   -0.024742240480198154    3.120920913930317E-7     -0.07761819899796982     -0.07083274714648799     0.07083524388321909      -0.07762069573470094     0.07762069573470094      -0.07083524388321909     0.07083274714648799      0.07761819899796982
0.06613085507243227       -0.0017602734120347257   -0.02478794125495693     1.7191183726595554E-7    -0.07788368294159118     -0.07084258929345233     0.07084396458815041      -0.07788505823628929     0.07788505823628929      -0.07084396458815041     0.07084258929345233      0.07788368294159118
0.06663016943827577       -0.001772214222767487    -0.024796479832120313    1.457210358416093E-7     -0.07793328505775254     -0.07084442816668264     0.07084559393496932      -0.07793445082603924     0.07793445082603924      -0.07084559393496932     0.07084442816668264      0.07793328505775254
0.06765117977578952       -0.0018011254373757521   -0.024817054395707888    -1.0951553162153457E-6   -0.07805779468314003     -0.07085329293363707     0.07084453169110728      -0.07804903344061027     0.07804903344061027      -0.07084453169110728     0.07085329293363707      0.07805779468314003
0.06879927178469607       -0.0018262369410230006   -0.0248419255988702      -1.364995513934397E-6    -0.07818371066071234     -0.07087876289662039     0.07086784293250886      -0.07817279069660084     0.07817279069660084      -0.07086784293250886     0.07087876289662039      0.07818371066071234
0.07132664771182183       -0.0018940641420407802   -0.024893004216490155    -9.902096013747738E-7    -0.07847110177195751     -0.07089484520379445     0.0708869235269834       -0.07846318009514651     0.07846318009514651      -0.0708869235269834      0.07089484520379445      0.07847110177195751
0.0728514674969585        -0.0019366951466480097   -0.024924049943299997    -6.335877992432076E-7    -0.07864807447439297     -0.070901293887801       0.070896225185407        -0.07864300577199901     0.07864300577199901      -0.070896225185407       0.070901293887801        0.07864807447439297
0.07661129637062065       -0.002041812671746963    -0.02500060103556761     2.4575345911506497E-7    -0.07908444543636027     -0.07091719474937248     0.07091916077704535      -0.07908641146403317     0.07908641146403317      -0.07091916077704535     0.07091719474937248      0.07908444543636027
0.07758788161214794       -0.002067240257474027    -0.025024377961977616    -7.570819643680203E-9    -0.07920764468415945     -0.0709386836542634      0.07093862308770621      -0.07920758411760229     0.07920758411760229      -0.07093862308770621     0.0709386836542634       0.07920764468415945
0.0786797079489959        -0.0020956684034245526   -0.025050960663988486    -2.907884104390819E-7    -0.07934538195245629     -0.07096270833875815     0.07096038203147459      -0.07934305564517277     0.07934305564517277      -0.07096038203147459     0.07096270833875815      0.07934538195245629
0.0814187542263447        -0.0021611625023058027   -0.025120555459312403    -6.852221580990494E-7    -0.07968673227118117     -0.07104208226195803     0.07103660048469321      -0.07968125049391639     0.07968125049391639      -0.07103660048469321     0.07104208226195803      0.07968673227118117
0.08731957026399446       -0.002332905125885387    -0.025267114221749452    1.4157646192288869E-6    -0.08046148985854217     -0.07112986935500067     0.07114119547195448      -0.08047281597549599     0.08047281597549599      -0.07114119547195448     0.07112986935500067      0.08046148985854217
0.08806030152722613       -0.0023485327111487063   -0.025288992244661287    1.0146270124522302E-6    -0.08055998364823141     -0.07116585280363665     0.07117396981973624      -0.08056810066433104     0.08056810066433104      -0.07117396981973624     0.07116585280363665      0.08055998364823141
0.09045248600875716       -0.0024117506573860473   -0.025358241523720966    1.4724509739185444E-6    -0.08089233608203926     -0.07124533345249512     0.07125711306028645      -0.08090411568983062     0.08090411568983062      -0.07125711306028645     0.07124533345249512      0.08089233608203926
0.09846075252797216       -0.002620261975337145    -0.025595527110530383    1.0817998553534566E-6    -0.08202277808284397     -0.07154173018149544     0.07155038458033824      -0.08203143248168682     0.08203143248168682      -0.07155038458033824     0.07154173018149544      0.08202277808284397
0.09975285167350811       -0.002653904374115051    -0.02563381211306231     1.0187699879920869E-6    -0.082205170007465       -0.07158955251100484     0.07159770267090874      -0.08221332016736893     0.08221332016736893      -0.07159770267090874     0.07158955251100484      0.082205170007465
0.1054097316892226        -0.002822329082171691    -0.025815256644975512    3.4627900323854707E-7    -0.08308904298325692     -0.07179972665457021     0.07180249688659608      -0.08309181321528283     0.08309181321528283      -0.07180249688659608     0.07179972665457021      0.08308904298325692
0.10580760822420732       -0.0028332891227036885   -0.02583070319530734     3.2109129189413353E-7    -0.08315740346616178     -0.07182424697534706     0.0718268157056822       -0.08315997219649693     0.08315997219649693      -0.0718268157056822      0.07182424697534706      0.08315740346616178
0.10654569336255551       -0.0028536206635739548   -0.02585935748435484     2.743665575163119E-7     -0.08328421631398233     -0.07186973365968656     0.07187192859214667      -0.08328641124644245     0.08328641124644245      -0.07187192859214667     0.07186973365968656      0.08328421631398233
0.11169520800618646       -0.002983639981013491    -0.026028290783739052    5.366095443615257E-7     -0.08405000587506667     -0.07211544595101274     0.07211973882736762      -0.08405429875142156     0.08405429875142156      -0.07211973882736762     0.07211544595101274      0.08405000587506667
0.11203273384456786       -0.00299216211992591     -0.02603936354640722     5.537983068216999E-7     -0.08410019968584617     -0.07213155120614258     0.07213598159259714      -0.08410463007230075     0.08410463007230075      -0.07213598159259714     0.07213155120614258      0.08410019968584617
0.11275590310526695       -0.0030101559292974303   -0.026063492811196874    6.359522387498217E-7     -0.08420824648323046     -0.07216762276604079     0.07217271038395076      -0.08421333410114046     0.08421333410114046      -0.07217271038395076     0.07216762276604079      0.08420824648323046
0.11476378143277699       -0.0030718553565275077   -0.026146336316027807    5.355294371412452E-7     -0.08458057754338984     -0.07229315611727985     0.07229744035277696      -0.08458486177888697     0.08458486177888697      -0.07229744035277696     0.07229315611727985      0.08458057754338984
0.11532918010231916       -0.0030879303088828464   -0.026166262338203246    5.718374890884852E-7     -0.08467236028241905     -0.07232063904688771     0.0723252137468004       -0.08467693498233175     0.08467693498233175      -0.0723252137468004      0.07232063904688771      0.08467236028241905
0.12274361609470809       -0.00327170716669014     -0.026454729534502792    1.5507994959416861E-6    -0.08590139973890487     -0.07281457107214435     0.07282697746811187      -0.0859138061348724      0.0859138061348724       -0.07282697746811187     0.07281457107214435      0.08590139973890487
0.12287390019082056       -0.003274936434813891    -0.026459798387746196    1.5680015029887818E-6    -0.08592299602685437     -0.07282325028759887     0.07283579429962274      -0.0859355400388783      0.0859355400388783       -0.07283579429962274     0.07282325028759887      0.08592299602685437
0.1257760860162321        -0.0033559885795842598   -0.026578947645584106    -1.5891450978873306E-7   -0.08644945575395996     -0.07302550143562296     0.07302423011954463      -0.08644818443788164     0.08644818443788164      -0.07302423011954463     0.07302550143562296      0.08644945575395996
0.12811587397874563       -0.0034181266537449415   -0.026679905073169453    -1.0033656155777132E-6   -0.08687998198946052     -0.0732074753744808      0.07319944844955616      -0.08687195506453589     0.08687195506453589      -0.07319944844955616     0.0732074753744808       0.08687998198946052
0.12851896417121655       -0.003428831576017597    -0.02669729765299666     -1.1488445923988054E-6   -0.08695415148939474     -0.07323882518532439     0.07322963442858516      -0.08694496073265554     0.08694496073265554      -0.07322963442858516     0.07323882518532439      0.08695415148939474
0.12876716031088253       -0.0034351850665737408   -0.026709036892927418    -1.057124275805176E-6    -0.08700170930903292     -0.073260969042738       0.07325251204853153      -0.08699325231482646     0.08699325231482646      -0.07325251204853153     0.073260969042738        0.08700170930903292
0.13072682100098343       -0.0034853497697982126   -0.026801725389432384    -3.329361431691826E-7    -0.08737720745246624     -0.0734358083732734      0.07343314488412803      -0.08737454396332085     0.08737454396332085      -0.07343314488412803     0.0734358083732734       0.08737720745246624
0.13299189727637414       -0.003546926027347163    -0.02690624780623704     9.946218515808371E-7     -0.08780861698599912     -0.07362091287661048     0.0736288698514231       -0.08781657396081172     0.08781657396081172      -0.0736288698514231      0.07362091287661048      0.08780861698599912
0.13423918040194915       -0.003578686099221154    -0.026961872456277992    4.969299262733047E-7     -0.08804100184757117     -0.07372625745068656     0.07373023289009674      -0.08804497728698132     0.08804497728698132      -0.07373023289009674     0.07372625745068656      0.08804100184757117
0.13586152799378332       -0.003618441615177966    -0.027040956675074727    1.0346345643251285E-6    -0.08835561471732278     -0.07388184825661095     0.07389012533312553      -0.08836389179383736     0.08836389179383736      -0.07389012533312553     0.07388184825661095      0.08835561471732278
0.1383315968838425        -0.0036890304378916976   -0.02715705373872137     -4.6372325160140696E-7   -0.08885107698495388     -0.07409495523338713     0.07409124544737429      -0.08884736719894104     0.08884736719894104      -0.07409124544737429     0.07409495523338713      0.08885107698495388
0.13860267614292093       -0.0036967772524997703   -0.027169794883764406    -6.281614695841178E-7    -0.08890545180217106     -0.074118342792172       0.0741133175004153       -0.08890042651041435     0.08890042651041435      -0.0741133175004153      0.074118342792172        0.08890545180217106
0.13969636710943875       -0.0037253428898372347   -0.027224239676930172    -6.767450936054833E-7    -0.08912611179083939     -0.07422474023149048     0.0742193262707416       -0.08912069783009051     0.08912069783009051      -0.0742193262707416      0.07422474023149048      0.08912611179083939
0.14165721903758263       -0.0037817473850324137   -0.027328247454007942    -6.015584177615702E-7    -0.08955064336575969     -0.07442365382563004     0.07441884135828793      -0.08954583089841756     0.08954583089841756      -0.07441884135828793     0.07442365382563004      0.08955064336575969
0.14374368817421268       -0.003832797737261831    -0.027433253645994176    -9.013189329814931E-7    -0.08996896168823809     -0.07463777073919081     0.07463056018772693      -0.08996175113677421     0.08996175113677421      -0.07463056018772693     0.07463777073919081      0.08996896168823809
0.14445997859118562       -0.0038507397044298917   -0.027469164624231088    -8.64584060545015E-7     -0.09011243161779521     -0.07470947280007567     0.07470255612759129      -0.09010551494531081     0.09010551494531081      -0.07470255612759129     0.07470947280007567      0.09011243161779521
0.14472521165436067       -0.0038579108810547534   -0.027484908063358196    -9.181746553740934E-7    -0.09017421865080556     -0.07474257512658658     0.07473522972934357      -0.09016687325356254     0.09016687325356254      -0.07473522972934357     0.07474257512658658      0.09017421865080556
0.14664158418477408       -0.003908391165680185    -0.027593954309603       -4.6085264687265423E-7   -0.09060048867075685     -0.07496692400803612     0.07496323718686111      -0.09059680184958183     0.09059680184958183      -0.07496323718686111     0.07496692400803612      0.09060048867075685
0.1491674321708984        -0.003974925998149643    -0.02773768118791117     1.4191422431314406E-7    -0.09116232790313551     -0.07526262391053697     0.07526375922433146      -0.09116346321693        0.09116346321693         -0.07526375922433146     0.07526262391053697      0.09116232790313551
0.15031728103945033       -0.004009190632514262    -0.02779896643116562     3.465685925586529E-7     -0.09141389428415513     -0.07537713175409809     0.07537990430283856      -0.09141666683289558     0.09141666683289558      -0.07537990430283856     0.07537713175409809      0.09141389428415513
0.15100188681345564       -0.004030952923296293    -0.027841768571979893    2.9498208605850606E-7    -0.09158603163418802     -0.07546221994100287     0.07546457979769133      -0.09158839149087647     0.09158839149087647      -0.07546457979769133     0.07546221994100287      0.09158603163418802
0.15384168738461665       -0.004111041209477295    -0.028024864917658848    2.2695636300133892E-7    -0.0922957693464791      -0.07585160450856994     0.07585342015947394      -0.09229758499738311     0.09229758499738311      -0.07585342015947394     0.07585160450856994      0.0922957693464791
0.15770424952137768       -0.004216301282270322    -0.028262666675549584    2.316140837964793E-7     -0.09321967613485418     -0.07635447100577294     0.0763563239184433       -0.09322152904752457     0.09322152904752457      -0.0763563239184433      0.07635447100577294      0.09321967613485418
0.1589899285844295        -0.004251337785755232    -0.02834182054555915     2.33164436618217E-7      -0.09352720455044142     -0.07652185340742053     0.07652371872291346      -0.09352906986593437     0.09352906986593437      -0.07652371872291346     0.07652185340742053      0.09352720455044142
0.16177443615334597       -0.004324519101872642    -0.028511465347332662    2.906827640755732E-7     -0.09418227151468693     -0.07688419510719642     0.07688652056930899      -0.09418459697679954     0.09418459697679954      -0.07688652056930899     0.07688419510719642      0.09418227151468693
0.162933756568803         -0.004350028887191033    -0.028590182842759368    5.020883197015549E-7     -0.09446859794938131     -0.07706848240061726     0.07707249910717481      -0.09447261465593894     0.09447261465593894      -0.07707249910717481     0.07706848240061726      0.09446859794938131
0.16809326258851914       -0.004467340245477115    -0.028948956287025818    4.653034038598856E-7     -0.0957796881384162      -0.07791032715650781     0.07791404958373865      -0.09578341056564708     0.09578341056564708      -0.07791404958373865     0.07791032715650781      0.0957796881384162
0.17095440755702135       -0.004545933663657327    -0.02915025753083437     -3.029284804124979E-7    -0.09654385163373938     -0.07836011697911015     0.0783576935512668       -0.09654142820589606     0.09654142820589606      -0.0783576935512668      0.07836011697911015      0.09654385163373938
0.17201222759838036       -0.004574274229474161    -0.029233201486865725    -5.408964675392897E-7    -0.09685031650541565     -0.07855321958751904     0.0785488924157787       -0.0968459893336753      0.0968459893336753       -0.0785488924157787      0.07855321958751904      0.09685031650541565
0.1723974527987331        -0.0045880638750418375   -0.02926243630455568     -6.818705942743288E-7    -0.09696616414612778     -0.07861390864596049     0.07860845368120625      -0.09696070918137357     0.09696070918137357      -0.07860845368120625     0.07861390864596049      0.09696616414612778
0.17432565200266426       -0.0046371795891306765   -0.0294159030268953      -6.359348156333215E-7    -0.09752461199820975     -0.07897589364168714     0.07897080616316202      -0.09751952451968468     0.09751952451968468      -0.07897080616316202     0.07897589364168714      0.09752461199820975
0.175675403319565         -0.004669469098612914    -0.029524447865913316    -3.5974976253514203E-8   -0.09791242569487077     -0.07923454930041919     0.07923426150060912      -0.09791213789506073     0.09791213789506073      -0.07923426150060912     0.07923454930041919      0.09791242569487077
0.17694341851991108       -0.004699803270784132    -0.02962641961735417     5.276534391479897E-7     -0.09827675477987417     -0.07947754169673771     0.07948176292425084      -0.09828097600738732     0.09828097600738732      -0.07948176292425084     0.07947754169673771      0.09827675477987417
0.17851120863223743       -0.0047386163439845684   -0.0297499675677593      4.701951336294561E-7     -0.09872525461071252     -0.07977078923477429     0.07977455079584328      -0.09872901617178151     0.09872901617178151      -0.07977455079584328     0.07977078923477429      0.09872525461071252
0.17908192037565407       -0.004755763231200703    -0.029797891472434824    7.68043727485906E-7      -0.09890212870479592     -0.07987907577999317     0.079885220129813        -0.09890827305461578     0.09890827305461578      -0.079885220129813       0.07987907577999317      0.09890212870479592
0.18015770751902563       -0.004791599739928781    -0.02988688150463865     5.484088779607173E-7     -0.09924165035826167     -0.0800752513985466      0.08007963866957023      -0.09924603762928531     0.09924603762928531      -0.08007963866957023     0.0800752513985466       0.09924165035826167
0.181661070157998         -0.0048353568998100675   -0.030021179713854575    2.8935468784434366E-7    -0.09973309552243245     -0.08039166792319226     0.08039398276069495      -0.09973541035993519     0.09973541035993519      -0.08039398276069495     0.08039166792319226      0.09973309552243245
0.1816822998947647        -0.004835914802218034    -0.03002304918854173     2.9171336076376164E-7    -0.09973981031661817     -0.08039615110774612     0.08039848481463217      -0.09974214402350427     0.09974214402350427      -0.08039848481463217     0.08039615110774612      0.09973981031661817
0.1841652352712967        -0.004901164580894809    -0.030241694614402938    5.675732311734345E-7     -0.10052514271207372     -0.08092048438849456     0.08092502497434387      -0.10052968329792308     0.10052968329792308      -0.08092502497434387     0.08092048438849456      0.10052514271207372
0.18666254527812456       -0.004966735059161405    -0.0304549752112681      1.3224579184601634E-6    -0.10129310592045325     -0.0814261656838077      0.08143674534715534      -0.10130368558380093     0.10130368558380093      -0.08143674534715534     0.0814261656838077       0.10129310592045325
0.18745473644741809       -0.0049791265548351825   -0.03053221591571207     6.220026777200428E-7     -0.10155241284609567     -0.081635906626755       0.08164088264817672      -0.10155738886751742     0.10155738886751742      -0.08164088264817672     0.081635906626755        0.10155241284609567
0.19089959043557067       -0.005074395168011099    -0.030869162006251175    1.3760326801451416E-7    -0.10275572594170365     -0.0824581452696593      0.08245924609580338      -0.10275682676784775     0.10275682676784775      -0.08245924609580338     0.0824581452696593       0.10275572594170365
0.19116062962266933       -0.00508196620173258     -0.030893309390133288    3.832387000901812E-7     -0.10284232761906466     -0.08251446281213437     0.08251752872173505      -0.10284539352866535     0.10284539352866535      -0.08251752872173505     0.08251446281213437      0.10284232761906466
0.1928657401558598        -0.005131420268338902    -0.031051040338746838    1.987731754225773E-6     -0.10340801062590141     -0.08288232955254582     0.08289823140657962      -0.1034239124799352      0.1034239124799352       -0.08289823140657962     0.08288232955254582      0.10340801062590141
0.19321674580104714       -0.00513787492746831     -0.03108775668657144     1.9015639948161075E-6    -0.10353141365867169     -0.08297991394879846     0.08299512646075696      -0.10354662617063018     0.10354662617063018      -0.08299512646075696     0.08297991394879846      0.10353141365867169
0.19466573396956352       -0.005164520438270075    -0.031239325626611116    1.5458544340039622E-6    -0.10404083433863748     -0.0833827525855572      0.0833951194210292       -0.10405320117410949     0.10405320117410949      -0.0833951194210292      0.0833827525855572       0.10404083433863748
0.1956256951150364        -0.005179369747140273    -0.031341133239304306    7.495776253268268E-7     -0.10437914090169215     -0.0836616619131311      0.08366765853413367      -0.10438513752269474     0.10438513752269474      -0.08366765853413367     0.0836616619131311       0.10437914090169215
0.19604952716641688       -0.005188884779791892    -0.03138623944012981     9.554404266430324E-7     -0.10453266611826664     -0.08377712699909912     0.08378477052251222      -0.10454030964167978     0.10454030964167978      -0.08378477052251222     0.08377712699909912      0.10453266611826664
0.19740882440286664       -0.005230304611041186    -0.03153887324255693     5.821767129089279E-7     -0.10507490024290154     -0.08415368179873683     0.08415833921244008      -0.10507955765660479     0.10507955765660479      -0.08415833921244008     0.08415368179873683      0.10507490024290154
0.19943849978694617       -0.005289982382230402    -0.031766562335652414    1.8124714978940982E-7    -0.1058789267828189      -0.08471899725389731     0.08472044723109559      -0.10588037676001717     0.10588037676001717      -0.08472044723109559     0.08471899725389731      0.1058789267828189