% Model:              Cylinder_slice_potential_2.mph
% Version:            COMSOL 6.2.0.415
% Date:               Nov 25 2024, 19:14
% Dimension:          1
% Nodes:              1886
% Expressions:        11
% Description:        Line graph
% Arc length (m)          Magnetic scalar potential Magnetic scalar potential Magnetic scalar potential Magnetic scalar potential Magnetic scalar potential Magnetic scalar potential Magnetic scalar potential Magnetic scalar potential Magnetic scalar potential Magnetic scalar potential Magnetic scalar potential
0                         8.015412626198419E-5     1.6528934418481714E-4    -0.0019287396780995314   -0.0070587824273197      -0.007379398932367633    -0.008050518492428622    0.008371134997476541     -0.008371134997476541    0.008050518492428622     0.007379398932367633     0.0070587824273197
2.4214849498505053E-4     8.018375563061436E-5     1.6534588016909368E-4    -0.0019292061966281987   -0.007060419634744281    -0.007381154657266736    -0.008052494915758867    0.008373229938281303     -0.008373229938281303    0.008052494915758867     0.007381154657266736     0.007060419634744281
0.0014714238067787822     8.033673288907737E-5     1.6564618628364382E-4    -0.0019316353866968238   -0.0070689295221582045   -0.00739027645371451     -0.008062806639860089    0.008384153571416378     -0.008384153571416378    0.008062806639860089     0.00739027645371451      0.0070689295221582045
0.005260823319182206      8.081339948658438E-5     1.6657445873642554E-4    -0.0019391067844733564   -0.007095076962710976    -0.007418330560657309    -0.00809452371512955     0.008417777313075867     -0.008417777313075867    0.00809452371512955      0.007418330560657309     0.007095076962710976
0.012117459775635941      8.167589222701518E-5     1.682540986689349E-4     -0.001952625722819011    -0.007142388810815205    -0.00746909237972326     -0.008151913402828833    0.008478616971736873     -0.008478616971736873    0.008151913402828833     0.00746909237972326      0.007142388810815205
0.012237599586768066      8.169157592856202E-5     1.682837547445509E-4     -0.0019528623305397242   -0.007143214906068115    -0.007469981209782357    -0.00815291743453544     0.008479683738249666     -0.008479683738249666    0.00815291743453544      0.007469981209782357     0.007143214906068115
0.01232829658173551       8.170341600544297E-5     1.6830614296803448E-4    -0.0019530409525056866   -0.007143838549107753    -0.007470652213129519    -0.00815367540691598     0.008480489070937729     -0.008480489070937729    0.00815367540691598      0.007470652213129519     0.007143838549107753
0.014427040361519872      8.19857553135506E-5      1.6888232542396786E-4    -0.001957197555318216    -0.0071581717343738565   -0.007486114755628053    -0.008171465686917682    0.008499408708171863     -0.008499408708171863    0.008171465686917682     0.007486114755628053     0.0071581717343738565
0.01521137007241058       8.210182157897009E-5     1.6908736324628687E-4    -0.0019587788654252284   -0.007163649728804111    -0.007492057015119984    -0.00817817390828185     0.008506581194597709     -0.008506581194597709    0.00817817390828185      0.007492057015119984     0.007163649728804111
0.0163360322629702        8.224571419606184E-5     1.693692956140299E-4     -0.001961042707645713    -0.007171571515348636    -0.007500554372132877    -0.008187787289032833    0.00851677014581706      -0.00851677014581706     0.008187787289032833     0.007500554372132877     0.007171571515348636
0.025420832434394303      8.340805048103222E-5     1.716466898789935E-4     -0.001979329580242096    -0.007235562150369334    -0.007569194352293457    -0.00826544228964331     0.008599074491567422     -0.008599074491567422    0.00826544228964331      0.007569194352293457     0.007235562150369334
0.025647003298584936      8.343833563750985E-5     1.717053321679709E-4     -0.001979793136336669    -0.0072371798775677405   -0.007570933220117775    -0.008267411870575581    0.008601165213125605     -0.008601165213125605    0.008267411870575581     0.007570933220117775     0.0072371798775677405
0.03675522298593048       8.493917161236843E-5     1.745893572920106E-4     -0.0020025591501355916   -0.007316590185441594    -0.0076563468718910625   -0.008364126329193668    0.008703883015643128     -0.008703883015643128    0.008364126329193668     0.0076563468718910625    0.007316590185441594
0.03756955516135663       8.503430305753249E-5     1.7480997020367592E-4    -0.002004201230649598    -0.0073223064058722965   -0.007662443618102421    -0.008371166227094363    0.00871130343932448      -0.00871130343932448     0.008371166227094363     0.007662443618102421     0.0073223064058722965
0.03826778147346821       8.510970187420731E-5     1.7499992616618455E-4    -0.002005653661061837    -0.007327395462000378    -0.007667834269497202    -0.008377395018997496    0.00871783382649431      -0.00871783382649431     0.008377395018997496     0.007667834269497202     0.007327395462000378
0.03923033249479135       8.52428433210085E-5      1.7527306657454195E-4    -0.0020076027553996255   -0.007334106135232857    -0.0076750775085168855   -0.00838574453468012     0.008726715907964139     -0.008726715907964139    0.00838574453468012      0.0076750775085168855    0.007334106135232857
0.03971808550678246       8.530911556259201E-5     1.7539874692308315E-4    -0.002008627640331874    -0.00733769608943306     -0.007678932551683424    -0.00839008857097157     0.008731325033221923     -0.008731325033221923    0.00839008857097157      0.007678932551683424     0.00733769608943306
0.04152314898267129       8.555437412544395E-5     1.7586386144049541E-4    -0.0020124205074443457   -0.0073509816972050085   -0.007693199193706779    -0.008406164865847993    0.008748382362349752     -0.008748382362349752    0.008406164865847993     0.007693199193706779     0.0073509816972050085
0.046578845243963496      8.621356889787333E-5     1.7717315097874638E-4    -0.0020230570271653923   -0.007388281517929583    -0.00773313579352107     -0.008451320423802073    0.008796174699393552     -0.008796174699393552    0.008451320423802073     0.00773313579352107      0.007388281517929583
0.04932060307165953       8.657105723061242E-5     1.7788319261390244E-4    -0.0020288253248829397   -0.007408509607228826    -0.00775479383615127     -0.008475808762912254    0.008822092991834687     -0.008822092991834687    0.008475808762912254     0.00775479383615127      0.007408509607228826
0.050993037166126465      8.683985380589182E-5     1.7833589599896914E-4    -0.0020322515114194377   -0.007420318650069059    -0.007767678065292621    -0.008490334026062887    0.008837693441286439     -0.008837693441286439    0.008490334026062887     0.007767678065292621     0.007420318650069059
0.05099348078863075       8.683991287201259E-5     1.7833602486137752E-4    -0.002032252437902119    -0.007420321851280319    -0.0077676815027683645   -0.008490338000448598    0.008837697651936633     -0.008837697651936633    0.008490338000448598     0.0077676815027683645    0.007420321851280319
0.055558523011015826      8.744772544370296E-5     1.796620674526391E-4     -0.002041786292744083    -0.007453263517731007    -0.007803054419505812    -0.008531235922446851    0.008881026824221653     -0.008881026824221653    0.008531235922446851     0.007803054419505812     0.007453263517731007
0.05766408359956077       8.77698431744457E-5      1.8023468629543632E-4    -0.0020462280698199304   -0.007468668534044518    -0.007819747906742294    -0.008550076651817146    0.008901156024514918     -0.008901156024514918    0.008550076651817146     0.007819747906742294     0.007468668534044518
0.05874302498283446       8.791382414002961E-5     1.8054311289134186E-4    -0.002048536049125497    -0.0074766872095479026   -0.007828342506108012    -0.008559945886895962    0.008911601183456071     -0.008911601183456071    0.008559945886895962     0.007828342506108012     0.0074766872095479026
0.061610352203472774      8.829645895993052E-5     1.8136276814575936E-4    -0.0020546695907526086   -0.007497997140653292    -0.007851182976493008    -0.008586173749527859    0.008939359585367571     -0.008939359585367571    0.008586173749527859     0.007851182976493008     0.007497997140653292
0.06372261826912817       8.858230013963648E-5     1.8192683979285663E-4    -0.0020591949876970963   -0.007513834831130538    -0.007868164031689075    -0.008605395869887688    0.008959725070446225     -0.008959725070446225    0.008605395869887688     0.007868164031689075     0.007513834831130538
0.06705294117479355       8.909570110857136E-5     1.8283797032618852E-4    -0.0020663246180645254   -0.007538593159062388    -0.00789497596349667     -0.00863562098101953     0.008992003785453808     -0.008992003785453808    0.00863562098101953      0.00789497596349667      0.007538593159062388
0.06844329947530525       8.928766981223705E-5     1.832203531028562E-4     -0.00206935637565584     -0.007549189103690313    -0.007906339782939255    -0.00864851122230746     0.0090056619015564       -0.0090056619015564      0.00864851122230746      0.007906339782939255     0.007549189103690313
0.07132935902583104       8.972250134329613E-5     1.840174950956328E-4     -0.0020756154841540387   -0.007570964448642663    -0.00792985445401584     -0.008675069419216471    0.009033959424589644     -0.009033959424589644    0.008675069419216471     0.00792985445401584      0.007570964448642663
0.07257604401483553       8.989636348349212E-5     1.8437060508028706E-4    -0.0020783615657069044   -0.007580541720619772    -0.007940127174553734    -0.008686765351101505    0.009046350805035462     -0.009046350805035462    0.008686765351101505     0.007940127174553734     0.007580541720619772
0.07421791541499223       9.01194070522029E-5      1.8484305080703107E-4    -0.002081919520455451    -0.007592910115296305    -0.007953387743505111    -0.008701968420138501    0.009062446048347304     -0.009062446048347304    0.008701968420138501     0.007953387743505111     0.007592910115296305
0.07542057733353857       9.028278525967976E-5     1.851891147460709E-4     -0.0020845257030612145   -0.007601969897487285    -0.007963101038525999    -0.008713104585963721    0.009074235727002429     -0.009074235727002429    0.008713104585963721     0.007963101038525999     0.007601969897487285
0.07837229457143846       9.073188930024578E-5     1.8601900302702828E-4    -0.002090982708065102    -0.007624410044578831    -0.00798733760177981     -0.008740524062741013    0.009103451619941982     -0.009103451619941982    0.008740524062741013     0.00798733760177981      0.007624410044578831
0.08047323529807082       9.102093375688432E-5     1.866404160002473E-4     -0.002095581179790348    -0.007640361603646881    -0.008004445338674412    -0.008760204099648375    0.0091242878346759       -0.0091242878346759      0.008760204099648375     0.008004445338674412     0.007640361603646881
0.0820639816061508        9.123978638629942E-5     1.871109244636278E-4     -0.0020990629543244967   -0.007652439471134504    -0.008017398616679695    -0.008775105017916283    0.009140064163461466     -0.009140064163461466    0.008775105017916283     0.008017398616679695     0.007652439471134504
0.08634905257537029       9.192736402997784E-5     1.882806453066921E-4     -0.0021084976795420042   -0.007685294054187983    -0.008053003510307891    -0.008814977926028148    0.009182687382148046     -0.009182687382148046    0.008814977926028148     0.008053003510307891     0.007685294054187983
0.08702884946641731       9.203462044779668E-5     1.8847486959504568E-4    -0.0021100017691046804   -0.007690513226737989    -0.008058651708529173    -0.008821362444308277    0.009189500926099449     -0.009189500926099449    0.008821362444308277     0.008058651708529173     0.007690513226737989
0.08709886486801466       9.204566727849917E-5     1.8849487364585573E-4    -0.0021101566821914506   -0.007691050773271235    -0.00805923344238523     -0.008822020015146382    0.009190202684260365     -0.009190202684260365    0.008822020015146382     0.00805923344238523      0.007691050773271235
0.08717889265601042       9.205681045559254E-5     1.8851912295709855E-4    -0.0021103365734833263   -0.007691675304150823    -0.008059902545973191    -0.008822790041893428    0.009191017283715783     -0.009191017283715783    0.008822790041893428     0.008059902545973191     0.007691675304150823
0.09245816566265397       9.27919035465137E-5      1.901188014872715E-4     -0.0021222036419743457   -0.007732874356342542    -0.008104041970528594    -0.008873587165266183    0.009244754779452222     -0.009244754779452222    0.008873587165266183     0.008104041970528594     0.007732874356342542
0.09364623082995993       9.295788263521547E-5     1.904832801395593E-4     -0.0021248484950583298   -0.007742028374544211    -0.00811385990508507     -0.00888492805538158     0.009256759585922425     -0.009256759585922425    0.00888492805538158      0.00811385990508507      0.007742028374544211
0.09404919030017056       9.301153111665754E-5     1.9060243513143143E-4    -0.0021257692699558827   -0.007745246712195923    -0.00811729283666255     -0.008888861322984526    0.009260907447451137     -0.009260907447451137    0.008888861322984526     0.00811729283666255      0.007745246712195923
0.09751244044977136       9.347261498517403E-5     1.916265171395081E-4     -0.0021336829040492374   -0.007772906834808078    -0.008146797294748775    -0.008922665937645142    0.009296556397585823     -0.009296556397585823    0.008922665937645142     0.008146797294748775     0.007772906834808078
0.10422353923456362       9.44985773819034E-5      1.9360936664338397E-4    -0.002148783381933369    -0.007825308273039518    -0.00820330258256713     -0.008986964472899837    0.009364958782427435     -0.009364958782427435    0.008986964472899837     0.00820330258256713      0.007825308273039518
0.11033488682940096       9.547742874617003E-5     1.954722168255667E-4     -0.002162919063582942    -0.007874304746362727    -0.008256214461347406    -0.009047138047316144    0.009429047762300809     -0.009429047762300809    0.009047138047316144     0.008256214461347406     0.007874304746362727
0.11234801011722273       9.579986965566536E-5     1.9608585351130252E-4    -0.0021675754621065723   -0.00789044454858105     -0.008273644027203712    -0.009066959669648883    0.009450159148271528     -0.009450159148271528    0.009066959669648883     0.008273644027203712     0.00789044454858105
0.11388772506165012       9.603033540113503E-5     1.9656270202553073E-4    -0.0021710875523969215   -0.007902601432708824    -0.008286722774313362    -0.009081977644862026    0.009466098986466548     -0.009466098986466548    0.009081977644862026     0.008286722774313362     0.007902601432708824
0.11577516309665703       9.634367120098755E-5     1.9713287637992697E-4    -0.002175383367499902    -0.00791744749845785     -0.0083028221832618      -0.009100244756737432    0.009485619441541363     -0.009485619441541363    0.009100244756737432     0.0083028221832618       0.00791744749845785
0.11724288394976745       9.658884017275291E-5     1.9760546120693037E-4    -0.0021787609135153203   -0.007929049590094986    -0.008315404950785994    -0.009114682357336585    0.00950103771802758      -0.00950103771802758     0.009114682357336585     0.008315404950785994     0.007929049590094986
0.11772545765076003       9.668108467470748E-5     1.977541515244274E-4     -0.0021798672833683893   -0.00793284450955086     -0.008319568848249687    -0.009119369418697443    0.009506093757396257     -0.009506093757396257    0.009119369418697443     0.008319568848249687     0.00793284450955086
0.1184588550231025        9.680446038920346E-5     1.9797268080194627E-4    -0.002181607022218189    -0.00793890112568851     -0.008326118967245322    -0.009126737210500205    0.009513955052057004     -0.009513955052057004    0.009126737210500205     0.008326118967245322     0.00793890112568851
0.1222281002135086        9.738434509187562E-5     1.9912350006238467E-4    -0.002190438531892233    -0.007969614937198024    -0.008359152317565524    -0.009164355937572349    0.009553893317939835     -0.009553893317939835    0.009164355937572349     0.008359152317565524     0.007969614937198024
0.12407714572497253       9.766881403790535E-5     1.99688047360458E-4      -0.002194770928034517    -0.007984681941980881    -0.0083753571981325      -0.009182810226143647    0.009573485482295252     -0.009573485482295252    0.009182810226143647     0.0083753571981325       0.007984681941980881
0.12696582465758155       9.815067947756769E-5     2.0063568117522867E-4    -0.0022014505855662827   -0.008007593939784303    -0.008400196657694575    -0.009211408026835694    0.00960401074474595      -0.00960401074474595     0.009211408026835694     0.008400196657694575     0.008007593939784303
0.13180843660633967       9.884746112881799E-5     2.0217514743653712E-4    -0.002213033517181992    -0.00804791370416072     -0.008443303548675991    -0.009260964588779962    0.009656354433295218     -0.009656354433295218    0.009260964588779962     0.008443303548675991     0.00804791370416072
0.13216117108811898       9.88982145068024E-5      2.0228728172267147E-4    -0.002213877214637867    -0.008050850584369846    -0.008446443442397053    -0.009264574274705895    0.009660167132733087     -0.009660167132733087    0.009264574274705895     0.008446443442397053     0.008050850584369846
0.13237912835328847       9.893095503534683E-5     2.023552301482945E-4     -0.0022144006652494454   -0.008052675060482201    -0.008448398880623587    -0.009266806441371988    0.009662530261513359     -0.009662530261513359    0.009266806441371988     0.008448398880623587     0.008052675060482201
0.13256339014602947       9.896102300054231E-5     2.0241686274082222E-4    -0.002214837537608229    -0.008054177516209363    -0.008450021608211528    -0.009268678692654315    0.009664522784656465     -0.009664522784656465    0.009268678692654315     0.008450021608211528     0.008054177516209363
0.1347629024051964        9.936897717295528E-5     2.0312656615367275E-4    -0.002220056059602727    -0.008072106585603978    -0.008469582494295795    -0.009290865982526032    0.009688341891217835     -0.009688341891217835    0.009290865982526032     0.008469582494295795     0.008072106585603978
0.13608309310388167       9.961233250200681E-5     2.0355296962069628E-4    -0.002223184874870791    -0.00808285592561706     -0.008481305255625083    -0.009304173743341256    0.009702623073349266     -0.009702623073349266    0.009304173743341256     0.008481305255625083     0.00808285592561706
0.1362061916644035        9.963752466288507E-5     2.035914056993941E-4     -0.0022234817404074713   -0.008083877695205934    -0.00848242779385747     -0.009305426129402316    0.009703976228053841     -0.009703976228053841    0.009305426129402316     0.00848242779385747      0.008083877695205934
0.13668790257676222       9.972371116786827E-5     2.037494969426006E-4     -0.0022246423152947306   -0.008087873348015386    -0.008486768192686855    -0.009310370329671006    0.009709265174342464     -0.009709265174342464    0.009310370329671006     0.008486768192686855     0.008087873348015386
0.14100866300427706       1.0049677075726752E-4    2.0516751420162152E-4    -0.0022350522228085238   -0.008123712807114694    -0.008525699890143762    -0.009354717892324439    0.009756704975353492     -0.009756704975353492    0.009354717892324439     0.008525699890143762     0.008123712807114694
0.14174238449058962       1.0061611660692588E-4    2.0539862135221458E-4    -0.002236832385212984    -0.00812990144358144     -0.008532365910009141    -0.009362293171694744    0.00976475763812243      -0.00976475763812243     0.009362293171694744     0.008532365910009141     0.00812990144358144
0.1478838963422917        1.0159183558929205E-4    2.0737964069992887E-4    -0.0022516799060571724   -0.00818139703095032     -0.008587764373307485    -0.00942567487514991     0.00983204221750706      -0.00983204221750706     0.00942567487514991      0.008587764373307485     0.00818139703095032
0.14891947574803965       1.0178355937558319E-4    2.07739027461541E-4      -0.0022542057556869887   -0.008190038821612167    -0.008597173059114496    -0.00943647298638143     0.009843607223883742     -0.009843607223883742    0.00943647298638143      0.008597173059114496     0.008190038821612167
0.151426581495673         1.022360733594572E-4     2.086281315321886E-4     -0.002260369385927158    -0.008211121002393152    -0.008620065295830977    -0.009462889791586299    0.00987183408502411      -0.00987183408502411     0.009462889791586299     0.008620065295830977     0.008211121002393152
0.15895472936174193       1.0351480157688386E-4    2.1115586988767628E-4    -0.0022790719981878914   -0.008275790779934768    -0.008689849986242303    -0.009542725999260843    0.00995678520556836      -0.00995678520556836     0.009542725999260843     0.008689849986242303     0.008275790779934768
0.1591335979730153        1.0354522712524659E-4    2.1121547011091147E-4    -0.0022795124563877328   -0.008277312960967701    -0.008691493869468686    -0.009544605781633188    0.009958786690134157     -0.009958786690134157    0.009544605781633188     0.008691493869468686     0.008277312960967701
0.1596998947606838        1.0364155420118343E-4    2.11404164005956E-4      -0.002280906944005748    -0.008282132175602756    -0.008696698392407488    -0.009550557159638508    0.009965123376443225     -0.009965123376443225    0.009550557159638508     0.008696698392407488     0.008282132175602756
0.16184449998706896       1.0400631881334985E-4    2.12104200200416E-4      -0.002286176503333205    -0.008300380775104872    -0.008716406050358269    -0.009573005976307385    0.009989031251560766     -0.009989031251560766    0.009573005976307385     0.008716406050358269     0.008300380775104872
0.16297877621023704       1.04179526173046E-4      2.1245180631133874E-4    -0.002289002292742103    -0.008310294699688301    -0.008727012804380485    -0.009585005537556352    0.010001723642248517     -0.010001723642248517    0.009585005537556352     0.008727012804380485     0.008310294699688301
0.16320953100369984       1.0422217051233215E-4    2.1252778644536793E-4    -0.0022895702450813856   -0.008312253279964772    -0.008729141962014098    -0.009587419998636998    0.010004308680686308     -0.010004308680686308    0.009587419998636998     0.008729141962014098     0.008312253279964772
0.1633267985585527        1.0424384199018688E-4    2.1256639888067764E-4    -0.0022898588734608922   -0.00831324861322116     -0.008730223981181905    -0.009588647006505245    0.010005622374465973     -0.010005622374465973    0.009588647006505245     0.008730223981181905     0.00831324861322116
0.16528273899995738       1.045943469598099E-4     2.1324719661754252E-4    -0.0022948046661680752   -0.008330288380900051    -0.008748665768739287    -0.009609771560605322    0.010028148948444546     -0.010028148948444546    0.009609771560605322     0.008748665768739287     0.008330288380900051
0.17210033960096194       1.0581194606811716E-4    2.1561551734596978E-4    -0.0023119888491924877   -0.008389484952595805    -0.00881273273686827     -0.009683178056671638    0.010106425840944093     -0.010106425840944093    0.009683178056671638     0.00881273273686827      0.008389484952595805
0.1736330356769391        1.0608568011102091E-4    2.1614795039676793E-4    -0.0023158521042336397   -0.008402793205522213    -0.008827135925966291    -0.009699680907902835    0.010124023628346903     -0.010124023628346903    0.009699680907902835     0.008827135925966291     0.008402793205522213
0.17417516434284352       1.0617233180882392E-4    2.1632290451824423E-4    -0.0023172012712469503   -0.008407491707815419    -0.008832181035050712    -0.0097054291349249      0.01013011846216018      -0.01013011846216018     0.0097054291349249       0.008832181035050712     0.008407491707815419
0.17527286288810462       1.0634163267134991E-4    2.166977859436272E-4     -0.0023200069528744424   -0.008417251188324187    -0.008842617719009583    -0.009717437903985965    0.01014280443467135      -0.01014280443467135     0.009717437903985965     0.008842617719009583     0.008417251188324187
0.17575740206570067       1.0641566478451082E-4    2.1685804263303423E-4    -0.0023212660748490096   -0.008421658841927906    -0.008847321501065951    -0.009722807097726133    0.01014846975686416      -0.01014846975686416     0.009722807097726133     0.008847321501065951     0.008421658841927906
0.1763849522714389        1.0651595636299469E-4    2.1706284005442708E-4    -0.0023228956445034664   -0.00842736214512459     -0.008853425970576569    -0.009729739185451173    0.010155803010903134     -0.010155803010903134    0.009729739185451173     0.008853425970576569     0.00842736214512459
0.1774015994631779        1.066942312986095E-4     2.1741991080892372E-4    -0.0023255125600877796   -0.008436402045327123    -0.00886317897052156     -0.009740921510180685    0.010167698435375107     -0.010167698435375107    0.009740921510180685     0.00886317897052156      0.008436402045327123
0.17958534973594964       1.0707716447586182E-4    2.1818689601664078E-4    -0.002331133674440428    -0.008455819680760063    -0.008884128338663509    -0.009764941056859926    0.010193249714763358     -0.010193249714763358    0.009764941056859926     0.008884128338663509     0.008455819680760063
0.18745233473050282       1.0853322448987261E-4    2.2100541604686536E-4    -0.0023513164002750267   -0.008525182903979765    -0.008959315801939252    -0.009851215400260972    0.010285348298220448     -0.010285348298220448    0.009851215400260972     0.008959315801939252     0.008525182903979765
0.1937752796384713        1.0972405493507065E-4    2.232466469640852E-4     -0.0023679094404170787   -0.008582449710905916    -0.009021345930646197    -0.009921929592690443    0.010360825812430712     -0.010360825812430712    0.009921929592690443     0.009021345930646197     0.008582449710905916
0.19465116071692612       1.0988445543338916E-4    2.2356371070474996E-4    -0.0023702143553430157   -0.008590397378391032    -0.009029935200124586    -0.009931779642619548    0.01037131746435309      -0.01037131746435309     0.009931779642619548     0.009029935200124586     0.008590397378391032
0.1972312538788572        1.103658087338151E-4     2.245208081686738E-4     -0.0023768923860947046   -0.008613275502405163    -0.009054738737340421    -0.009960400351417223    0.010401863586352467     -0.010401863586352467    0.009960400351417223     0.009054738737340421     0.008613275502405163
0.19903827866396684       1.1069485606244235E-4    2.252183719867429E-4     -0.0023817144170606413   -0.00862981284015745     -0.009072592264407216    -0.009981123072077923    0.010423902496327674     -0.010423902496327674    0.009981123072077923     0.009072592264407216     0.00862981284015745
0.20030790125040965       1.1093218812495962E-4    2.2569235696292175E-4    -0.002385112636225125    -0.008641509097761811    -0.009085237850261647    -0.009995663239539359    0.01043939199203918      -0.01043939199203918     0.009995663239539359     0.009085237850261647     0.008641509097761811
0.20714901113766326       1.1222742499450674E-4    2.282476862732623E-4     -0.002403416183407843    -0.008704466824822565    -0.009153376524800591    -0.010073952942462158    0.010522862642440168     -0.010522862642440168    0.010073952942462158     0.009153376524800591     0.008704466824822565
0.20929303891958284       1.1265503846233148E-4    2.2903831262640413E-4    -0.00240915868120219     -0.008724209710004878    -0.009174829863854202    -0.010098439585763322    0.010549059739612633     -0.010549059739612633    0.010098439585763322     0.009174829863854202     0.008724209710004878
0.21291736916241266       1.1335450095070477E-4    2.3035787908929256E-4    -0.0024188862971256317   -0.00875776254933323     -0.00921118055313605     -0.010139909823869005    0.01059332782767181      -0.01059332782767181     0.010139909823869005     0.00921118055313605      0.00875776254933323
0.2131881269161775        1.1340606811294565E-4    2.3045743244636137E-4    -0.002419618036687554    -0.008760287713185233    -0.009213911985637016    -0.01014303230786342     0.010596656580315188     -0.010596656580315188    0.01014303230786342      0.009213911985637016     0.008760287713185233
0.21525311668682123       1.1379935569584176E-4    2.312166966266919E-4     -0.0024251987991556105   -0.008779546395350675    -0.009234743818134042    -0.010166846575110845    0.010622043997894196     -0.010622043997894196    0.010166846575110845     0.009234743818134042     0.008779546395350675
0.22079420997080135       1.148540957546822E-4     2.3332076111133603E-4    -0.002440197606899092    -0.00883111995275299     -0.009290536335771718    -0.010231044519421025    0.010690460902439736     -0.010690460902439736    0.010231044519421025     0.009290536335771718     0.00883111995275299
0.22213081757663145       1.1514970355747296E-4    2.3388180272112543E-4    -0.0024438752052840956   -0.008843556005858054    -0.009304154820087947    -0.010246846822184826    0.010707445636414702     -0.010707445636414702    0.010246846822184826     0.009304154820087947     0.008843556005858054
0.22669607287294435       1.1603443239252187E-4    2.3570762081210405E-4    -0.0024565447947603207   -0.00888698745181992     -0.009351125181390009    -0.010301233176692565    0.010765370906262634     -0.010765370906262634    0.010301233176692565     0.009351125181390009     0.00888698745181992
0.22853447938724658       1.1639599944685575E-4    2.3638368068211064E-4    -0.002461610395699319    -0.008904498541857226    -0.00937008253964465     -0.01032280062594991     0.010788384623737317     -0.010788384623737317    0.01032280062594991      0.00937008253964465      0.008904498541857226