% Model:              Cylinder_slice_potential_2.mph
% Version:            COMSOL 6.2.0.339
% Date:               May 15 2024, 11:19
% Dimension:          1
% Nodes:              787
% Expressions:        11
% Description:        Line graph
% Arc length (m)          Magnetic scalar potential Magnetic scalar potential Magnetic scalar potential Magnetic scalar potential Magnetic scalar potential Magnetic scalar potential Magnetic scalar potential Magnetic scalar potential Magnetic scalar potential Magnetic scalar potential Magnetic scalar potential
0                         0.015719524063368837     -0.004847286294578746    -6.719367617497884E-7    0.016894501495954457     -0.045983594757520854    0.045978219263426844     0.016899876990048416     -0.016899876990048416    -0.045978219263426844    0.045983594757520854     -0.016894501495954457
0.0016079132824213913     0.015720467686175816     -0.004892855846674538    -4.794507446320249E-7    0.01676045002934951      -0.04612142071535373     0.04611758510939666      0.016764285635306526     -0.016764285635306526    -0.04611758510939666     0.04612142071535373      -0.01676045002934951
0.011336074636992276      0.01572140832409721      -0.005170111900903111    -1.3448097833738463E-7   0.01593194302157175      -0.046953690274817064    0.046952614426990336     0.01593301886939842      -0.01593301886939842     -0.046952614426990336    0.046953690274817064     -0.01593194302157175
0.013578863439427408      0.01572904850996277      -0.0052367325209296866   1.0215515133520255E-6    0.0157519856631899       -0.04716420837666115     0.04717238078876795      0.015743813251083056     -0.015743813251083056    -0.04717238078876795     0.04716420837666115      -0.0157519856631899
0.023789995416034472      0.01576912232823041      -0.005555155758071591    1.0352928828316613E-6    0.01487691855377739      -0.048199570759144245    0.048207853102206884     0.014868636210714707     -0.014868636210714707    -0.048207853102206884    0.048199570759144245     -0.01487691855377739
0.025662811062534117      0.015775760298199305     -0.005610674044217232    2.7773400420385034E-8    0.014719609557348613     -0.0483834316354486      0.04838365382265196      0.01471938737014522      -0.01471938737014522     -0.04838365382265196     0.0483834316354486       -0.014719609557348613
0.026542332760980912      0.015778877657151427     -0.005636746838630785    -4.4538328643514935E-7   0.014645733265264773     -0.04846977736334092     0.048466214297049434     0.014649296331556223     -0.014649296331556223    -0.048466214297049434    0.04846977736334092      -0.014645733265264773
0.027363343574862968      0.015783898075260948     -0.005662147232619406    -2.5830479513510457E-7   0.014580321233483148     -0.048555271067560614    0.04855320462919953      0.014582387671844197     -0.014582387671844197    -0.04855320462919953     0.048555271067560614     -0.014580321233483148
0.027877129696107963      0.015787039837956277     -0.005678042723500703    -1.412316326527058E-7    0.014539386578879848     -0.048608772772945244    0.04860764291988401      0.014540516431941038     -0.014540516431941038    -0.04860764291988401     0.048608772772945244     -0.014539386578879848
0.028206182022945968      0.015789006354483964     -0.005687762643246571    -5.871353631080987E-7    0.014512376237775796     -0.048643649180160044    0.04863895209725517      0.01451707332068063      -0.01451707332068063     -0.04863895209725517     0.048643649180160044     -0.014512376237775796
0.029566857540614572      0.01579834448592364      -0.00573282131322473     -6.029326690416533E-7    0.01439581330149694      -0.0487975646421976      0.04879274118084527      0.014400636762849247     -0.014400636762849247    -0.04879274118084527     0.0487975646421976       -0.01439581330149694
0.030090600873479555      0.015801236652544848     -0.005749918603691777    -6.11098192248418E-7     0.014350273101245389     -0.04885467350893399     0.048849784723395996     0.014355161886783346     -0.014355161886783346    -0.048849784723395996    0.04885467350893399      -0.014350273101245389
0.03414546182297523       0.015823628027777474     -0.0058822871344333125   -6.743162975792017E-7    0.013997697387064717     -0.04929681472404517     0.04929142019366454      0.014003091917445323     -0.014003091917445323    -0.04929142019366454     0.04929681472404517      -0.013997697387064717
0.03442146495391921       0.015825436998313104     -0.005890854856130001    -6.857636790195473E-7    0.013975566373520149     -0.04932618161973226     0.049320695510300105     0.013981052482952278     -0.013981052482952278    -0.049320695510300105    0.04932618161973226      -0.013975566373520149
0.034523593089469076      0.01582619690595627      -0.005894390319098982    -5.527898326773981E-7    0.01396701169528491      -0.04933777592854017     0.04933335360987874      0.0139714340139463       -0.0139714340139463      -0.04933335360987874     0.04933777592854017      -0.01396701169528491
0.035595455258360026      0.015834172340445273     -0.005931495951014832    8.428063424478682E-7     0.013877228053215855     -0.04945946130856522     0.04946620375930479      0.013870485602476244     -0.013870485602476244    -0.04946620375930479     0.04945946130856522      -0.013877228053215855
0.03561286138312641       0.01583429532057637      -0.005932047589739296    8.310224190336077E-7     0.013875771961611008     -0.04946140932069446     0.04946805750004672      0.013869123782258711     -0.013869123782258711    -0.04946805750004672     0.04946140932069446      -0.013875771961611008
0.03572100508379793       0.01583524918538862      -0.005935779642411609    8.519688845032216E-7     0.013866567319080446     -0.04947442942247402     0.04948124517355004      0.013859751568004394     -0.013859751568004394    -0.04948124517355004     0.04947442942247402      -0.013866567319080446
0.04008124335750161       0.015870712411686045     -0.006083512641522488    8.226621487139515E-7     0.013494177547399504     -0.04998867209934467     0.04999525339653438      0.01348759625020976      -0.01348759625020976     -0.04999525339653438     0.04998867209934467      -0.013494177547399504
0.04278866840047557       0.015889962874151297     -0.00617376465823214     1.5860611239809934E-7    0.01325926619805579      -0.050300585298549395    0.050301854147448574     0.013257997349156569     -0.013257997349156569    -0.050301854147448574    0.050300585298549395     -0.01325926619805579
0.045163955359633974      0.015906851752596943     -0.006252944851561779    -4.2398569279513933E-7   0.013053173007737394     -0.05057423400265039     0.050570842117108        0.013056564893279717     -0.013056564893279717    -0.050570842117108       0.05057423400265039      -0.013053173007737394
0.04668383279718527       0.015920325856017062     -0.006307892839382067    5.265723066950306E-7     0.012919079483114729     -0.05076222394095353     0.05076643651940707      0.012914866904661131     -0.012914866904661131    -0.05076643651940707     0.05076222394095353      -0.012919079483114729
0.04771850929661416       0.01593076238615793      -0.006343458893230881    -4.4565322122281314E-7   0.012829365479738356     -0.05089368406489337     0.050890118839123574     0.0128329307055081       -0.0128329307055081      -0.050890118839123574    0.05089368406489337      -0.012829365479738356
0.04863883270190426       0.01594004546445724      -0.006375094164553791    -1.3104277754502885E-6   0.012749566724151342     -0.051010615133677634    0.05100013171147401      0.012760050146354906     -0.012760050146354906    -0.05100013171147401     0.051010615133677634     -0.012749566724151342
0.053811414283988904      0.01598996831763311      -0.006563376057072858    -8.028396540713492E-7    0.012286597105431396     -0.05167327616510106     0.05166685344786847      0.01229301982266393      -0.01229301982266393     -0.05166685344786847     0.05167327616510106      -0.012286597105431396
0.05478325512077183       0.01600069982044767      -0.006597788925361587    -9.934088544825799E-7    0.01220405922939268      -0.05179874005239801     0.05179079278156213      0.012212006500228505     -0.012212006500228505    -0.05179079278156213     0.05179874005239801      -0.01220405922939268
0.059888855242185         0.016057078149078446     -0.0067785781429609655   -1.994570871894773E-6    0.011770443585786453     -0.05245786901052736     0.05244191244355218      0.011786400152761577     -0.011786400152761577    -0.05244191244355218     0.05245786901052736      -0.011770443585786453
0.06001539397363283       0.01605863733243635      -0.006783102513949188    -2.1322996260533284E-6   0.011759437924520959     -0.05247511140522446     0.052458053008216016     0.011776496321529351     -0.011776496321529351    -0.052458053008216016    0.05247511140522446      -0.011759437924520959
0.06333774244541723       0.016101141076967005     -0.0069084952704061686   -2.138365953939365E-6    0.011468242878899776     -0.05293632142896826     0.052919214501336714     0.011485349806531257     -0.011485349806531257    -0.052919214501336714    0.05293632142896826      -0.011468242878899776
0.06436970798973096       0.01611434330431686      -0.006947443925331771    -2.1402502359200214E-6   0.011377793831694764     -0.05307957938557269     0.05306245738368531      0.01139491583358209      -0.01139491583358209     -0.05306245738368531     0.05307957938557269      -0.011377793831694764
0.06752148275415297       0.016154144401124088     -0.0070677823994342685   -1.6714467826692766E-6   0.011098255816814714     -0.05351832178768162     0.05350495021342025      0.011111627391076035     -0.011111627391076035    -0.05350495021342025     0.05351832178768162      -0.011098255816814714
0.06978983040908572       0.016182789444426533     -0.00715439058559336     -1.334046653126445E-6    0.010897070945460493     -0.053834086832245616    0.053823414459020585     0.010907743318685471     -0.010907743318685471    -0.053823414459020585    0.053834086832245616     -0.010897070945460493
0.07139195524536139       0.01620195449339274      -0.007214336905149121    -1.6071881725228416E-6   0.010754469518648044     -0.054053348454922906    0.054040490949542705     0.010767327024028196     -0.010767327024028196    -0.054040490949542705    0.054053348454922906     -0.010754469518648044
0.0719723390792861        0.01620917084961858      -0.007237206426922315    -1.075487719714735E-6    0.010702420467591366     -0.05413426293088293     0.05412565902912519      0.010711024369349051     -0.010711024369349051    -0.05412565902912519     0.05413426293088293      -0.010702420467591366
0.07321207864799302       0.016227674203180935     -0.007285548366601323    4.1853170877283427E-7    0.010600377433393001     -0.0543103193793307      0.05431366763300088      0.010597029179722786     -0.010597029179722786    -0.05431366763300088     0.0543103193793307       -0.010600377433393001
0.07906657830021485       0.016309483010345432     -0.007511404932251027    7.161811080975794E-6     0.0101133984682617       -0.05512453357312001     0.05518182806176781      0.010056103979613866     -0.010056103979613866    -0.05518182806176781     0.05512453357312001      -0.0101133984682617
0.08373100207468545       0.016388951366699815     -0.007693906641345498    1.1085705497567558E-6    0.009700617091562173     -0.055855188375237064    0.05586405693963509      0.00969174852716409      -0.00969174852716409     -0.05586405693963509     0.055855188375237064     -0.009700617091562173
0.08601433528290851       0.016429923890349543     -0.007786091842731356    2.0516224940558928E-6    0.009509778742481247     -0.0562099168189169      0.05622632979886931      0.009493365762528771     -0.009493365762528771    -0.05622632979886931     0.0562099168189169       -0.009509778742481247
0.08936987234376217       0.016490136224269196     -0.007921565219371481    3.4375112193674715E-6    0.009229326835301432     -0.05673121806177535     0.056758718151530246     0.009201826745546463     -0.009201826745546463    -0.056758718151530246    0.05673121806177535      -0.009229326835301432
0.09154037984646426       0.016523956995028573     -0.008007832494431173    2.9761608108876655E-6    0.009036321150007194     -0.057059506830107104    0.057083316116594174     0.009012511863520062     -0.009012511863520062    -0.057083316116594174    0.057059506830107104     -0.009036321150007194
0.0939452586739048        0.016566784689238213     -0.008103708755260605    6.427050262209011E-7     0.00882501393279951      -0.057442124824153354    0.05744726646436307      0.008819872292589716     -0.008819872292589716    -0.05744726646436307     0.057442124824153354     -0.00882501393279951
0.09999689908787379       0.016688425489941944     -0.008352942442743568    -1.9231025226381037E-6   0.008310331241562658     -0.05844337071820513     0.05842798589802399      0.008325716061743732     -0.008325716061743732    -0.05842798589802399     0.05844337071820513      -0.008310331241562658
0.10048875772810116       0.016698504327929926     -0.008373162482137722    -1.8972892925630983E-6   0.008269932052276455     -0.058524085259443255    0.05850890694510272      0.00828511036661693      -0.00828511036661693     -0.05850890694510272     0.058524085259443255     -0.008269932052276455
0.10053713259810962       0.01669949559338229      -0.008375151146557252    -1.894750531327126E-6    0.008265958744967543     -0.058532023628561636    0.05851686562431098      0.008281116749218128     -0.008281116749218128    -0.05851686562431098     0.058532023628561636     -0.008265958744967543
0.10280493042501307       0.01674412072154345      -0.008465171625046905    1.851474719148763E-6     0.0081001324668228       -0.05887635041935102     0.058891162217104165     0.008085320669069578     -0.008085320669069578    -0.058891162217104165    0.05887635041935102      -0.0081001324668228
0.10452713201906966       0.016779362775026486     -0.008538088019827852    1.0895795065477047E-6    0.00794881980859562      -0.05916863129151033     0.05917734792756267      0.007940103172543206     -0.007940103172543206    -0.05917734792756267     0.05916863129151033      -0.00794881980859562
0.10531007662398892       0.01679538446246194      -0.008571237157594839    7.432078922846346E-7     0.007880030283708518     -0.059301507566139264    0.059307453229277496     0.007874084620570208     -0.007874084620570208    -0.059307453229277496    0.059301507566139264     -0.007880030283708518
0.10734964527436688       0.016839242837773157     -0.008655029850181498    -1.587134944320553E-7    0.007712761271024114     -0.05964421008006855     0.059642940372113054     0.0077140309789795365    -0.0077140309789795365   -0.059642940372113054    0.05964421008006855      -0.007712761271024114
0.109064256845335         0.01687774272126468      -0.008725182251414856    -6.052765426204328E-7    0.007577517582114323     -0.05993345330294442     0.0599286110906034       0.007582359794455251     -0.007582359794455251    -0.0599286110906034      0.05993345330294442      -0.007577517582114323
0.10919701261704051       0.01688072361899687      -0.008730613881715515    -6.398521999187109E-7    0.0075670461840475385    -0.05995584829193997     0.059950729474340575     0.007572165001646853     -0.007572165001646853    -0.059950729474340575    0.05995584829193997      -0.0075670461840475385
0.1131149418659735        0.01697075217228414      -0.008895860086432032    -1.8672799792815377E-6   0.007246454965355075     -0.060636553723781496    0.06062161548394721      0.007261393205189293     -0.007261393205189293    -0.06062161548394721     0.060636553723781496     -0.007246454965355075
0.1132301901717386        0.016973404470064374     -0.008900666074558774    -1.8080557485426867E-6   0.007237578493458267     -0.06065603938679924     0.06064157494081086      0.007252042939446574     -0.007252042939446574    -0.06064157494081086     0.06065603938679924      -0.007237578493458267
0.11394773759208682       0.0169893403289908       -0.008930135082432237    -1.1165217648217761E-6   0.007183809323625617     -0.06077355199233759     0.060764619818218985     0.007192741497744156     -0.007192741497744156    -0.060764619818218985    0.06077355199233759      -0.007183809323625617
0.11580950568938984       0.017030580924994168     -0.009006818021336006    6.362054277915195E-7     0.007043252607691501     -0.06107907109228517     0.061084160735707466     0.007038162964269136     -0.007038162964269136    -0.061084160735707466    0.06107907109228517      -0.007043252607691501
0.12188127974217092       0.017181546870225575     -0.009257954681406647    -1.8091310759619562E-7   0.006588506043800828     -0.062137681437101494    0.06213623413224066      0.006589953348661566     -0.006589953348661566    -0.06213623413224066     0.062137681437101494     -0.006588506043800828
0.12242872420993345       0.017194827166440083     -0.009280727326321398    -2.6888623297233126E-7   0.0065463968089840945    -0.06223291185677628     0.06223076076691244      0.0065485478988478426    -0.0065485478988478426   -0.06223076076691244     0.06223291185677628      -0.0065463968089840945
0.12257538178598931       0.01719843727878491      -0.009286929175548863    -2.051873514907164E-7    0.006535266281517276     -0.06225848283362238     0.062256841334810395     0.006536907780329171     -0.006536907780329171    -0.062256841334810395    0.06225848283362238      -0.006535266281517276
0.12320196428900056       0.017213861188616265     -0.009313426069311525    6.696091163451887E-8     0.006487712012944494     -0.06236773274152056     0.06236826842881358      0.0064871763256513885    -0.0064871763256513885   -0.06236826842881358     0.06236773274152056      -0.006487712012944494
0.12378801163253249       0.01722987679934089      -0.009338310257759993    -3.090884550026439E-7    0.006443586471581786     -0.062475920725781765    0.062473448018141704     0.006446059179221776     -0.006446059179221776    -0.062473448018141704    0.062475920725781765     -0.006443586471581786
0.12530908237896085       0.017270834330389076     -0.009400077964991324    -2.0037898712357407E-6   0.006333419606319229     -0.06274991771523707     0.06273388739626715      0.006349449925289084     -0.006349449925289084    -0.06273388739626715     0.06274991771523707      -0.006333419606319229
0.1272349811914207        0.0173220898865662       -0.009479358780348715    -2.657139223645472E-6    0.006195474875191677     -0.06309288467107314     0.06307162755728392      0.006216731988980813     -0.006216731988980813    -0.06307162755728392     0.06309288467107314      -0.006195474875191677
0.13162725824812826       0.017438985230168413     -0.009660169581040035    -4.147192258643182E-6    0.005880872948182153     -0.06387506797249153     0.06384189043442232      0.00591405048625127      -0.00591405048625127     -0.06384189043442232     0.06387506797249153      -0.005880872948182153
0.13446083777704382       0.017518953236488135     -0.009780363976107579    -1.291812287041671E-6    0.0056916472955053634    -0.06438416565044719     0.0643738311521508       0.005701981793801669     -0.005701981793801669    -0.0643738311521508      0.06438416565044719      -0.0056916472955053634
0.13671980619166557       0.017584137220865412     -0.009871171823002685    -1.77700232171348E-6     0.005547650963435913     -0.06478889792002576     0.06477468190145198      0.005561866982009593     -0.005561866982009593    -0.06477468190145198     0.06478889792002576      -0.005547650963435913
0.13766292081853948       0.017611351399118725     -0.009909083910700485    -1.979568154662141E-6    0.005487532793517351     -0.06495787280295756     0.06494203625772021      0.005503369338754619     -0.005503369338754619    -0.06494203625772021     0.06495787280295756      -0.005487532793517351
0.1442915888574132        0.017806085800861935     -0.01017605289092582     -8.273807416682694E-7    0.00508070340597973      -0.06614363979746801     0.0661370207515346       0.005087322451913049     -0.005087322451913049    -0.0661370207515346      0.06614363979746801      -0.00508070340597973
0.14506929414362899       0.01782790349440491      -0.010207392211090257    -5.672487686264954E-7    0.005031361360464543     -0.0662802526171551      0.06627571462700603      0.005035899350613528     -0.005035899350613528    -0.06627571462700603     0.0662802526171551       -0.005031361360464543
0.14609378992261393       0.017859045879044973     -0.010247181377585566    -4.3220623505134854E-7   0.004974818800393041     -0.06646136471578687     0.06645790706590639      0.0049782764502734255    -0.0049782764502734255   -0.06645790706590639     0.06646136471578687      -0.004974818800393041
0.14904210741473833       0.01794817270234356      -0.010363439439007454    -8.321311584689545E-8    0.0048056942352013715    -0.06698699657417288     0.06698633086924605      0.004806359940128121     -0.004806359940128121    -0.06698633086924605     0.06698699657417288      -0.0048056942352013715
0.15059740680144576       0.01800128979685905      -0.010427461784470257    -6.414976243320568E-7    0.004717628249810001     -0.06728753093762621     0.06728239895663152      0.004722760230804632     -0.004722760230804632    -0.06728239895663152     0.06728753093762621      -0.004717628249810001
0.15276942035633154       0.01807119124944901      -0.010514552820994666    1.266147238708921E-7     0.0045992304948095       -0.06768553450298655     0.06768654742077745      0.0045982175770185076    -0.0045982175770185076   -0.06768654742077745     0.06768553450298655      -0.0045992304948095
0.15565016056749492       0.01817210580048685      -0.010617652141702492    -1.4879259159936178E-6   0.004485303472202261     -0.06820311972974516     0.06819121632241716      0.004497206879530183     -0.004497206879530183    -0.06819121632241716     0.06820311972974516      -0.004485303472202261
0.1575097396092717        0.01823335406942226      -0.010686742695954772    -1.5345061414581275E-6   0.0044003420264143766    -0.06853307425127467     0.06852079820214296      0.004412618075546015     -0.004412618075546015    -0.06852079820214296     0.06853307425127467      -0.0044003420264143766
0.15919659076053036       0.018295632558031502     -0.01074994475257876     -2.3077749891237345E-6   0.0043321997583702304    -0.06885033047375579     0.06883186827384274      0.004350661958283195     -0.004350661958283195    -0.06883186827384274     0.06885033047375579      -0.0043321997583702304
0.1605031918518619        0.018338380111551485     -0.01080014722967465     -1.0747126571776013E-6   0.004272019683450309     -0.06908150076275565     0.06907290306149817      0.004280617384707704     -0.004280617384707704    -0.06907290306149817     0.06908150076275565      -0.004272019683450309
0.16094059377942793       0.01835269041821847      -0.010816953170214584    -6.619287980636834E-7    0.0042518736106009316    -0.06915888806227297     0.0691535926318884       0.0042571690409854155    -0.0042571690409854155   -0.0691535926318884      0.06915888806227297      -0.0042518736106009316
0.16290449984347039       0.018421695049714817     -0.010885580327989421    -9.126100612578778E-7    0.004182998675216332     -0.06950378152364295     0.06949648064315282      0.00419029955570637      -0.00419029955570637     -0.06949648064315282     0.06950378152364295      -0.004182998675216332
0.16604443695366658       0.018531725890672108     -0.010997986051457154    -8.090455934725147E-7    0.004066257444598853     -0.0700606461180896      0.07005417375334176      0.004072729809346608     -0.004072729809346608    -0.07005417375334176     0.0700606461180896       -0.004066257444598853
0.16746488862962686       0.018582332807118636     -0.011046408495637348    1.1713956034233477E-7    0.004025908685566594     -0.07030342254290797     0.07030435965939064      0.004024971569083829     -0.004024971569083829    -0.07030435965939064     0.07030342254290797      -0.004025908685566594
0.16946436629728887       0.018656576241349594     -0.01111590884857125     3.9072715815881526E-7    0.0039669888456180715    -0.07065931611978032     0.07066244193704553      0.003963863028352775     -0.003963863028352775    -0.07066244193704553     0.07065931611978032      -0.0039669888456180715
0.1706498522784199        0.018700595012799408     -0.01115711545738681     5.529366527024637E-7     0.003932055400049194     -0.07087032465114847     0.07087474814437003      0.003927631906827548     -0.003927631906827548    -0.07087474814437003     0.07087032465114847      -0.003932055400049194
0.17640683812893923       0.018915748213210168     -0.011342717281364437    -6.351108427248504E-7    0.0038008041389561292    -0.07186218871388457     0.07185710782714272      0.0038058850256979023    -0.0038058850256979023   -0.07185710782714272     0.07186218871388457      -0.0038008041389561292
0.1781790416046485        0.018982037946199612     -0.011396713766529855    -2.1641226542962536E-7   0.003773068943747938     -0.07215508284105052     0.07215335154292703      0.0037748002418713494    -0.0037748002418713494   -0.07215335154292703     0.07215508284105052      -0.003773068943747938
0.18003153488228785       0.019051330940160306     -0.011453156566217431    2.2125548007919353E-7    0.003744077203588628     -0.07246124655705259     0.07246301660089317      0.003742307159747968     -0.003742307159747968    -0.07246301660089317     0.07246124655705259      -0.003744077203588628
0.18714925384837244       0.019344778617204218     -0.011647494630053386    -1.9807276063214354E-6   0.0037391504338229924    -0.07363996403499388     0.07362411821414326      0.003754996254673538     -0.003754996254673538    -0.07362411821414326     0.07363996403499388      -0.0037391504338229924
0.1887151374522268        0.019408234536133117     -0.01169343544714825     -2.4480027751829266E-6   0.0037263707197207514    -0.07390656742481172     0.07388698340261018      0.00374595474192219      -0.00374595474192219     -0.07388698340261018     0.07390656742481172      -0.0037263707197207514
0.18963983816533114       0.019446146568672124     -0.011719134302158422    -2.720462706086707E-6    0.0037240083800446242    -0.07406057789464388     0.07403881419299511      0.0037457720816932933    -0.0037457720816932933   -0.07403881419299511     0.07406057789464388      -0.0037240083800446242
0.19068332511942548       0.01949132514426662      -0.011746821834165793    -2.239954637691524E-6    0.003733224967485088     -0.0742320756095814      0.0742141559724798       0.003751144604586595     -0.003751144604586595    -0.0742141559724798      0.0742320756095814       -0.003733224967485088
0.19378306474954948       0.01961782590575925      -0.01183472423297101     -2.5446392449401996E-7   0.0037304612569074897    -0.07474084236612953     0.07473880665473351      0.003732496968303416     -0.003732496968303416    -0.07473880665473351     0.07474084236612953      -0.0037304612569074897
0.19538545578933983       0.019680729071044626     -0.011871575233775186    2.779572024056535E-7     0.0037478442695733057    -0.07497507201460521     0.07497729567222439      0.003745620611954034     -0.003745620611954034    -0.07497729567222439     0.07497507201460521      -0.0037478442695733057
0.2000319891698617        0.01987589480538557      -0.011973277424619956    -1.6840965801461288E-6   0.003825220950590671     -0.0756783582709516      0.07566488549831038      0.003838693723231813     -0.003838693723231813    -0.07566488549831038     0.0756783582709516       -0.003825220950590671
0.20033769576808616       0.01988873522809413      -0.011979968656178838    -1.8131848139489392E-6   0.0038303117483959506    -0.07572462916398057     0.07571012368546892      0.0038448172269075157    -0.0038448172269075157   -0.07571012368546892     0.07572462916398057      -0.0038303117483959506
0.20353178840491226       0.020037496853402524     -0.012049930823694762    -9.447151641739848E-8    0.003924823349655089     -0.07622516406395499     0.07622440829182361      0.003925579121786402     -0.003925579121786402    -0.07622440829182361     0.07622516406395499      -0.003924823349655089
0.20387962359299044       0.02005133638452873      -0.012055965714161681    -1.445389605332707E-7    0.003934197470730282     -0.07627114806738464     0.07626999175570033      0.003935353782414523     -0.003935353782414523    -0.07626999175570033     0.07627114806738464      -0.003934197470730282
0.20703176489464903       0.02017675255619191      -0.012110654912217992    -5.982586067200464E-7    0.0040191473413029605    -0.07668786288346467     0.07668307681461087      0.004023933410156694     -0.004023933410156694    -0.07668307681461087     0.07668786288346467      -0.0040191473413029605
0.20859159283234263       0.020237418280564197     -0.012135444508030361    -9.624035527979208E-7    0.004064653422826122     -0.07688501969943067     0.07687732047100823      0.004072352651248477     -0.004072352651248477    -0.07687732047100823     0.07688501969943067      -0.004064653422826122
0.2097455459999846        0.020287573841294124     -0.012153802028382009    -1.235937221589024E-7    0.004113247222553587     -0.0770370481426229      0.07703605939284558      0.0041142359723308295    -0.0041142359723308295   -0.07703605939284558     0.0770370481426229       -0.004113247222553587
0.21246914391063926       0.020391265476263815     -0.012181212054955292    5.931643227318158E-7     0.004241267444952684     -0.07732379446010257     0.07732853977468439      0.0042365221303708       -0.0042365221303708      -0.07732853977468439     0.07732379446010257      -0.004241267444952684