% Model:              Cylinder_slice_potential_1.mph
% Version:            COMSOL 6.2.0.415
% Date:               May 17 2024, 18:29
% Dimension:          1
% Nodes:              752
% Expressions:        11
% Description:        Line graph
% Arc length (m)          Magnetic scalar potential Magnetic scalar potential Magnetic scalar potential Magnetic scalar potential Magnetic scalar potential Magnetic scalar potential Magnetic scalar potential Magnetic scalar potential Magnetic scalar potential Magnetic scalar potential Magnetic scalar potential
0                         -0.002369539664201236    1.3551280152096346E-6    2.706731794163076E-7     -0.004733931251639176    0.004744227405165761     -0.004742062019730442    -0.004736096637074501    0.004736096637074501     0.004742062019730442     -0.004744227405165761    0.004733931251639176
6.925683309665269E-4      -0.002363105063420802    -8.445076009284482E-7    -6.206076096189405E-7    -0.004731226080082862    0.004721194173600337     -0.0047261590344773      -0.004726261219205906    0.004726261219205906     0.0047261590344773       -0.004721194173600337    0.004731226080082862
0.0030752464411502247     -0.0023408690680430553   -9.403853185439878E-6    -3.829731888331746E-6    -0.004725268623195753    0.004638207648976458     -0.004668845504083124    -0.004694630768089094    0.004694630768089094     0.004668845504083124     -0.004638207648976458    0.004725268623195753
0.008642226542439561      -0.0022904170209885055   -2.8913486116500914E-5   -1.1480167345643783E-5   -0.004713495169709083    0.0044481729142449265    -0.004540014253010088    -0.004621653830943928    0.004621653830943928     0.004540014253010088     -0.0044481729142449265   0.004713495169709083
0.010371284182825404      -0.002276442059799241    -3.4693863727903925E-5   -1.3722347730759079E-5   -0.004711855101705225    0.004393913137491728     -0.0045036919193378105   -0.004602076319859148    0.004602076319859148     0.0045036919193378105    -0.004393913137491728    0.004711855101705225
0.011943748813667818      -0.0022637718339259157   -3.984385603014941E-5    -1.5487026262689495E-5   -0.004709023340993031    0.004346063994710618     -0.004469960204812144    -0.004585127130891511    0.004585127130891511     0.004469960204812144     -0.004346063994710618    0.004709023340993031
0.016080935373348766      -0.00222992942245546     -5.109216022652923E-5    -2.0488803050156034E-5   -0.004695090537791125    0.0042246271520307       -0.004388537576431959    -0.004531180113389872    0.004531180113389872     0.004388537576431959     -0.0042246271520307      0.004695090537791125
0.016929660458643157      -0.002222412469399863    -5.328701911919751E-5    -2.1462088904246506E-5   -0.004690534351774299    0.004199115525825141     -0.004370812237059122    -0.004518837640540323    0.004518837640540323     0.004370812237059122     -0.004199115525825141    0.004690534351774299
0.022641861017883316      -0.002171820888931769    -6.805914546656981E-5    -2.8012624638803862E-5   -0.004659869712818458    0.004027413842908609     -0.004251514840019047    -0.004435768715708025    0.004435768715708025     0.004251514840019047     -0.004027413842908609    0.004659869712818458
0.022653750646193373      -0.0021717317399181516   -6.809705268060155E-5    -2.8026546688438336E-5   -0.004659860824631857    0.004027066135040741     -0.004251278508548255    -0.0044356484511243474   0.0044356484511243474    0.004251278508548255     -0.004027066135040741    0.004659860824631857
0.022678934615747         -0.0021715352784893805   -6.815723694743406E-5    -2.8052767617401123E-5   -0.004659753338290662    0.00402638777566685      -0.004250809916606066    -0.00443533119735145     0.00443533119735145      0.004250809916606066     -0.00402638777566685     0.004659753338290662
0.026341993380159905      -0.00214362376742635     -7.754070914210801E-5    -3.215026746944944E-5    -0.004648470732156818    0.003926024337548574     -0.004183226477304177    -0.0043912685924012195   0.0043912685924012195    0.004183226477304177     -0.003926024337548574    0.004648470732156818
0.029000303151053758      -0.0021218218156406846   -8.360885904773161E-5    -3.491409726660869E-5    -0.004634126597490994    0.003853160665071735     -0.004132473443204611    -0.004354813819358122    0.004354813819358122     0.004132473443204611     -0.003853160665071735    0.004634126597490994
0.03485717513437816       -0.0020733125375631965   -9.589126996119288E-5    -4.155867662029198E-5    -0.004600533591491136    0.0036927165587616433    -0.004025185971723985    -0.004268064178528798    0.004268064178528798     0.004025185971723985     -0.0036927165587616433   0.004600533591491136
0.03505956720016002       -0.0020718715300836275   -9.632790838141016E-5    -4.17752329700355E-5     -0.004599827717191625    0.0036876584031428792    -0.004021860266903169    -0.004265625853431337    0.004265625853431337     0.004021860266903169     -0.0036876584031428792   0.004599827717191625
0.036996383707148923      -0.0020580816265004876   -1.0050637504508805E-4   -4.384759638633947E-5    -0.004593072763681594    0.003639253742320349     -0.0039900345134110705   -0.004242291992590875    0.004242291992590875     0.0039900345134110705    -0.003639253742320349    0.004593072763681594
0.046449716405680186      -0.0019852759599707096   -1.1826398309291158E-4   -5.321658792821562E-5    -0.004538210220933013    0.00340289361894982      -0.0038286263223755506   -0.004112477517507287    0.004112477517507287     0.0038286263223755506    -0.00340289361894982     0.004538210220933013
0.047072180170181985      -0.001980421814004863    -1.1951467342434945E-4   -5.3785918869144063E-5   -0.004534531323759348    0.003387155932260099     -0.0038174432832132578   -0.004104243972806194    0.004104243972806194     0.0038174432832132578    -0.003387155932260099    0.004534531323759348
0.04719771203063892       -0.001979521482318463    -1.1974460266814756E-4   -5.388673801142598E-5    -0.00453382372468707     0.0033842622045867784    -0.0038153561086781917   -0.004102729820595661    0.004102729820595661     0.0038153561086781917    -0.0033842622045867784   0.00453382372468707
0.04738666605361555       -0.0019781875824815536   -1.2005863421719792E-4   -5.405804413412337E-5    -0.004532783244151192    0.0033799670857750184    -0.0038124314388480116   -0.004100318891078204    0.004100318891078204     0.0038124314388480116    -0.0033799670857750184   0.004532783244151192
0.05160086167112371       -0.0019471003175516133   -1.2765673184755245E-4   -5.746651977331629E-5    -0.004507036909739147    0.003281364360467302     -0.003741096518653839    -0.004047304751552615    0.004047304751552615     0.003741096518653839     -0.003281364360467302    0.004507036909739147
0.054672761625513336      -0.0019242462040957756   -1.3318100742216055E-4   -6.0004083656842857E-5   -0.004488051765085402    0.003208933051297696     -0.0036889657205524456   -0.0040080190958306575   0.0040080190958306575    0.0036889657205524456    -0.003208933051297696    0.004488051765085402
0.05899022589033237       -0.0018924826577529164   -1.3931802997470692E-4   -6.452627197861426E-5    -0.00446102449334441     0.0031089061376672537    -0.0036251163134961737   -0.0039448143175154935   0.0039448143175154935    0.0036251163134961737    -0.0031089061376672537   0.00446102449334441
0.06033939398661055       -0.0018823875044293756   -1.4102768079994867E-4   -6.555522972530453E-5    -0.004450078970159813    0.0030794710475576846    -0.0036039128853601276   -0.003925637132357375    0.003925637132357375     0.0036039128853601276    -0.0030794710475576846   0.004450078970159813
0.06693428501774355       -0.0018373503101652732   -1.5086001111507623E-4   -7.075571868688521E-5    -0.004410303528423315    0.0029390977122377747    -0.0035051434617328625   -0.0038442577789282303   0.0038442577789282303    0.0035051434617328625    -0.0029390977122377747   0.004410303528423315
0.06706231995426204       -0.0018365034632357052   -1.5103647124898762E-4   -7.086676481424355E-5    -0.004409583399475346    0.0029364304534674713    -0.0035033645719814255   -0.003842649280961395    0.003842649280961395     0.0035033645719814255    -0.0029364304534674713   0.004409583399475346
0.07003032844346205       -0.0018168725019968679   -1.5512703582218769E-4   -7.344095165460431E-5    -0.004392889918078713    0.0028746000899087525    -0.0034621277031455936   -0.003805362304841878    0.003805362304841878     0.0034621277031455936    -0.0028746000899087525   0.004392889918078713
0.07073330705776357       -0.0018120076827388531   -1.5593409455056338E-4   -7.414672791513014E-5    -0.004388404560789915    0.0028596261701654933    -0.0034527999934865403   -0.0037952307374688726   0.0037952307374688726    0.0034527999934865403    -0.0028596261701654933   0.004388404560789915
0.0742265554826197        -0.0017873949322774166   -1.5940569651484276E-4   -7.66591523045839E-5     -0.004359643563317695    0.0027899361657919676    -0.0034032093842286445   -0.003746370344881022    0.003746370344881022     0.0034032093842286445    -0.0027899361657919676   0.004359643563317695
0.07971186976843525       -0.001752330569191466    -1.6608415198051405E-4   -8.07463989278907E-5     -0.004325899190036035    0.0026834230867298246    -0.0033293942781529567   -0.0036799279986129067   0.0036799279986129067    0.0033293942781529567    -0.0026834230867298246   0.004325899190036035
0.07980423201534105       -0.0017517600023326232   -1.6618619684572177E-4   -8.08224937065982E-5     -0.004325368570028803    0.0026816714393016862    -0.003328251388954478    -0.003678788620376015    0.003678788620376015     0.003328251388954478     -0.0026816714393016862   0.004325368570028803
0.08247638822519476       -0.0017352527840040417   -1.6913848340633996E-4   -8.302401155910483E-5    -0.004310017064463521    0.002630994071552641     -0.003295186164025486    -0.0036458249719906795   0.0036458249719906795    0.003295186164025486     -0.002630994071552641    0.004310017064463521
0.09075298634468207       -0.0016846308153506168   -1.785145488828829E-4    -8.76790193301071E-5     -0.004255521354670309    0.002483001906732154     -0.0031844340613730172   -0.0035540892000294508   0.0035540892000294508    0.0031844340613730172    -0.002483001906732154    0.004255521354670309
0.09076128043881584       -0.0016845784012806447   -1.7852101606924417E-4   -8.76846563856798E-5     -0.004255458476311739    0.0024828551288108352    -0.0031843323798962805   -0.0035539812252262997   0.0035539812252262997    0.0031843323798962805    -0.0024828551288108352   0.004255458476311739
0.09187940284505451       -0.001677512488464498    -1.793928540131177E-4    -8.844458484072268E-5    -0.004246981878331238    0.00246306807552675      -0.003170624754252538    -0.003539425199605455    0.003539425199605455     0.003170624754252538     -0.00246306807552675     0.004246981878331238
0.09607520778726082       -0.0016508723680621546   -1.820096065886607E-4    -9.172943762785052E-5    -0.004214691306401691    0.0023887981658469223    -0.003122633666869733    -0.003480855805378886    0.003480855805378886     0.003122633666869733     -0.0023887981658469223   0.004214691306401691
0.09766015036279435       -0.0016419270737835384   -1.830512916396771E-4    -9.282656804035879E-5    -0.0042043142946475405   0.0023633940004866077    -0.0031060065448094845   -0.0034617017503246698   0.0034617017503246698    0.0031060065448094845    -0.0023633940004866077   0.0042043142946475405
0.103759822140723         -0.0016064514115458868   -1.8842967778520654E-4   -9.606508870356288E-5    -0.004162452211261643    0.0022633534349219006    -0.0030318741445504098   -0.0033939315016331393   0.0033939315016331393    0.0030318741445504098    -0.0022633534349219006   0.004162452211261643
0.10468520270704787       -0.0016010694025448424   -1.8924563218381416E-4   -9.655640433405542E-5    -0.004156101318977347    0.0022481762912020184    -0.003020627525874468    -0.0033836500843049027   0.0033836500843049027    0.003020627525874468     -0.0022481762912020184   0.004156101318977347
0.1096740273493269        -0.00157104085468279     -1.918829419016188E-4    -9.978991320147392E-5    -0.004116890187876329    0.002167273230854825     -0.0029655925364666233   -0.0033185708822645378   0.0033185708822645378    0.0029655925364666233    -0.002167273230854825    0.004116890187876329
0.11639585030843308       -0.0015353220383984155   -1.956621026935147E-4    -1.0353720571252677E-4   -0.0040717792077274795   0.0020695089458661778    -0.0028978065915663985   -0.0032434815620272645   0.0032434815620272645    0.0028978065915663985    -0.0020695089458661778   0.0040717792077274795
0.12177775808656666       -0.001505475992008435    -1.9849622222370194E-4   -1.0595450695286839E-4   -0.004030258678499447    0.001991645289534289     -0.002839281345157242    -0.0031826226228765      0.0031826226228765       0.002839281345157242     -0.001991645289534289    0.004030258678499447
0.12267603112449171       -0.0015004945059135402   -1.989692539561608E-4    -1.0635796918564096E-4   -0.004023328650438124    0.0019786493732160326    -0.002829513126701166    -0.003172464896952996    0.003172464896952996     0.002829513126701166     -0.0019786493732160326   0.004023328650438124
0.1250609461691285        -0.0014882117038839376   -2.0029330354623946E-4   -1.0738674980332626E-4   -0.004006850317619896    0.0019459964979158498    -0.002805090496342466    -0.0031477563191932853   0.0031477563191932853    0.002805090496342466     -0.0019459964979158498   0.004006850317619896
0.13127873417146058       -0.001456297631894265    -2.0354809896446017E-4   -1.1004803928895656E-4   -0.0039634317178377345   0.0018617588097393219    -0.0027421431240509803   -0.0030830474035260813   0.0030830474035260813    0.0027421431240509803    -0.0018617588097393219   0.0039634317178377345
0.13293217646040237       -0.001447682503896053    -2.043971445699586E-4    -1.1071660674661424E-4   -0.003951422868488436    0.0018393071470957714    -0.002725040001068691    -0.003065690014515522    0.003065690014515522     0.002725040001068691     -0.0018393071470957714   0.003951422868488436
0.13364417311605264       -0.0014439145232937867   -2.0459329277663116E-4   -1.1105914797442337E-4   -0.003945845516815158    0.0018298125763599846    -0.002718285760155378    -0.0030573723330197702   0.0030573723330197702    0.002718285760155378     -0.0018298125763599846   0.003945845516815158
0.13546264514009201       -0.001434013473134722    -2.0515091938307236E-4   -1.1176601673952139E-4   -0.003930543771376745    0.0018055101211621404    -0.0026996382550783177   -0.0030364156374605733   0.0030364156374605733    0.0026996382550783177    -0.0018055101211621404   0.003930543771376745
0.13659694013869078       -0.0014280567386923278   -2.0539628202249308E-4   -1.124043130404436E-4    -0.0039219195756139075   0.001790307379155401     -0.002689541883478956    -0.0030226850712903584   0.0030226850712903584    0.002689541883478956     -0.001790307379155401    0.0039219195756139075
0.14097028084181137       -0.0014066891798271701   -2.0741469426680822E-4   -1.1361943649560699E-4   -0.003890100188437191    0.0017366565308714857    -0.0026456120228363477   -0.0029811446964723345   0.0029811446964723345    0.0026456120228363477    -0.0017366565308714857   0.003890100188437191
0.14418759142548326       -0.0013910019293542502   -2.0869076691951415E-4   -1.1479349093794719E-4   -0.00386725012321883     0.0016967575941981678    -0.0026151055217017516   -0.002948902195715252    0.002948902195715252     0.0026151055217017516    -0.0016967575941981678   0.00386725012321883
0.14898817264967382       -0.0013669235473503562   -2.0927357793390389E-4   -1.1709757938373352E-4   -0.003830058146037356    0.0016376360433640652    -0.00257441667843394     -0.0028932775109674885   0.0028932775109674885    0.00257441667843394      -0.0016376360433640652   0.003830058146037356
0.14903821933064645       -0.001366672527099639    -2.092796538142072E-4    -1.1712159980417716E-4   -0.003829670414858606    0.0016370196935399466    -0.00257399249197337     -0.0028926976164251896   0.0028926976164251896    0.00257399249197337      -0.0016370196935399466   0.003829670414858606
0.15199552974050343       -0.0013534779679912055   -2.100797532750048E-4    -1.1829430695051334E-4   -0.0038103724236094763   0.0016035394483553417    -0.0025498939039594547   -0.0028640179680053703   0.0028640179680053703    0.0025498939039594547    -0.0016035394483553417   0.0038103724236094763
0.15562993928051932       -0.0013367612808658491   -2.11318539466843E-4     -1.1919971609129769E-4   -0.0037842770444974157   0.001562768078965977     -0.002516365807696365    -0.002830679315767035    0.002830679315767035     0.002516365807696365     -0.001562768078965977    0.0037842770444974157
0.15913604361685327       -0.001320418777301534    -2.1173200441466526E-4   -1.2024827352361448E-4   -0.003757026661941519    0.0015246484472646127    -0.0024866346354535346   -0.002795040473752604    0.002795040473752604     0.0024866346354535346    -0.0015246484472646127   0.003757026661941519
0.1667415779860673        -0.0012849681858147543   -2.1262890352817404E-4   -1.225228320719544E-4    -0.003697914410501846    0.0014419583327571672    -0.002422140989332808    -0.0027177317539262107   0.0027177317539262107    0.002422140989332808     -0.0014419583327571672   0.003697914410501846
0.17207009898979125       -0.001262297488972528    -2.13747711110874E-4     -1.2413272850388934E-4   -0.0036623690252932336   0.0013868209305968754    -0.0023798827586279958   -0.0026693071972621186   0.0026693071972621186    0.0023798827586279958    -0.0013868209305968754   0.0036623690252932336
0.17284362943949724       -0.0012588674772439142   -2.138308752823707E-4    -1.243343112509064E-4    -0.003656564825338564    0.0013789050836370896    -0.0023735795736443462   -0.002661890335331313    0.002661890335331313     0.0023735795736443462    -0.0013789050836370896   0.003656564825338564
0.17583582633418443       -0.0012455993887711212   -2.141525737698655E-4    -1.2511408051516244E-4   -0.0036341128209124865   0.0013482847341719948    -0.0023491973782933      -0.0026332001767911863   0.0026332001767911863    0.0023491973782933       -0.0013482847341719948   0.0036341128209124865
0.17681458830149405       -0.001241250249331213    -2.1411660171974516E-4   -1.2537063933056386E-4   -0.0036263328611439148   0.001338668136180934     -0.00234163325082545     -0.0026233677464994037   0.0026233677464994037    0.00234163325082545      -0.001338668136180934    0.0036263328611439148
0.1777433415591047        -0.0012374598556556854   -2.1405058572324012E-4   -1.2552799974627362E-4   -0.003619183467466184    0.0013306559551565552    -0.002334879953126749    -0.0026149594694959946   0.0026149594694959946    0.002334879953126749     -0.0013306559551565552   0.003619183467466184
0.18231305943117587       -0.0012184578748955749   -2.1373554137225058E-4   -1.2633109715611367E-4   -0.0035834467625323538   0.0012903847370499422    -0.002301033514298857    -0.002572797985283444    0.002572797985283444     0.002301033514298857     -0.0012903847370499422   0.0035834467625323538
0.18793511343243233       -0.0011952422752991214   -2.14487318102842E-4     -1.2784880222946608E-4   -0.003545341713824632    0.0012356273873718507    -0.002258417805207586    -0.002522551295988902    0.002522551295988902     0.002258417805207586     -0.0012356273873718507   0.003545341713824632
0.19201818931963102       -0.0011788118013683294   -2.1560648580379636E-4   -1.286620178144703E-4    -0.0035190911314059276   0.001196156074067387     -0.002225452216583155    -0.0024897949888901642   0.0024897949888901642    0.002225452216583155     -0.001196156074067387    0.0035190911314059276
0.19345234505262743       -0.0011732816000656185   -2.1544768379556717E-4   -1.289308140857733E-4    -0.0035086295078610302   0.0011844968924014407    -0.0022159434050876324   -0.002477182995174842    0.002477182995174842     0.0022159434050876324    -0.0011844968924014407   0.0035086295078610302
0.20028698184968347       -0.001147453821392229    -2.152690719638718E-4    -1.300081796548113E-4    -0.0034607475772953167   0.0011290677082735965    -0.002169133145512092    -0.0024206821400568255   0.0024206821400568255    0.002169133145512092     -0.0011290677082735965   0.0034607475772953167
0.2051296226662019        -0.0011291537040754413   -2.15142517624239E-4     -1.3077154055223046E-4   -0.0034268211232325197   0.0010897936930692428    -0.002135966017487092    -0.002380648798814675    0.002380648798814675     0.002135966017487092     -0.0010897936930692428   0.0034268211232325197
0.2062866968737811        -0.0011245779711177935   -2.1491886893927785E-4   -1.3094139818190125E-4   -0.0034176781417810235   0.0010806337426901471    -0.0021281649281453623   -0.0023701469563258124   0.0023701469563258124    0.0021281649281453623    -0.0010806337426901471   0.0034176781417810235
0.20946589535762758       -0.0011125963257132172   -2.1510136602703346E-4   -1.3193692249500593E-4   -0.0033982444394875565   0.0010521408633653087    -0.0021076362433253616   -0.002342749059527508    0.002342749059527508     0.0021076362433253616    -0.0010521408633653087   0.0033982444394875565
0.21193474951447025       -0.001104030560046757    -2.1471132572702448E-4   -1.3209806353020045E-4   -0.0033805873513953867   0.001035534888791637     -0.002092319397033246    -0.0023238028431537823   0.0023238028431537823    0.002092319397033246     -0.001035534888791637    0.0033805873513953867
0.21210929859872318       -0.0011033940764799345   -2.1465953687173272E-4   -1.3209058644159658E-4   -0.003379129109341451    0.001034447196578283     -0.0020911718881110606   -0.0023224044178086775   0.0023224044178086775    0.0020911718881110606    -0.001034447196578283    0.003379129109341451
0.21335466740821327       -0.0010988529081016167   -2.142900349328619E-4    -1.320372390810365E-4    -0.0033687248773259628   0.0010266867550805003    -0.0020829846677287976   -0.0023124269646776696   0.0023124269646776696    0.0020829846677287976    -0.0010266867550805003   0.0033687248773259628
0.21395986792705302       -0.0010968103789252965   -2.1414848342935102E-4   -1.3215256418397172E-4   -0.003364676464874531    0.0010225650508266513    -0.0020797855642984307   -0.0023074559514027555   0.0023074559514027555    0.0020797855642984307    -0.0010225650508266513   0.003364676464874531
0.21478439580314412       -0.0010940276280994473   -2.1395563303198002E-4   -1.3230968361666064E-4   -0.0033591608897614745   0.0010169496226363102    -0.0020754270915696008   -0.0023006834208281883   0.0023006834208281883    0.0020754270915696008    -0.0010169496226363102   0.0033591608897614745
0.21539940229410182       -0.0010919199247802621   -2.1397413321875997E-4   -1.3246453390334303E-4   -0.0033556203848301744   0.0010120593142908707    -0.00207177558551762     -0.0022959041136034284   0.0022959041136034284    0.00207177558551762      -0.0010120593142908707   0.0033556203848301744
0.21572064655617953       -0.001090766380882405    -2.139856778684742E-4    -1.3253206429330311E-4   -0.0033536180525434427   0.001009447470986173     -0.0020697039853326037   -0.0022933615381970163   0.0022933615381970163    0.0020697039853326037    -0.001009447470986173    0.0033536180525434427
0.2173314015560566        -0.0010849823815386242   -2.1404356404558045E-4   -1.328706692930262E-4    -0.0033435781323860924   9.963513937684006E-4     -0.0020593167481126155   -0.0022806127780418814   0.0022806127780418814    0.0020593167481126155    -9.963513937684006E-4    0.0033435781323860924
0.22255749707364703       -0.001066888522347638    -2.1359391195802682E-4   -1.3321942856415507E-4   -0.0033074364948259736   9.601175945645731E-4     -0.002025873023077819    -0.002241681066312732    0.002241681066312732     0.002025873023077819     -9.601175945645731E-4    0.0033074364948259736
0.2248921672581067        -0.0010586275765433425   -2.1348356207619973E-4   -1.3356551335117278E-4   -0.0032919678927199724   9.425424134533925E-4     -0.002011066520262779    -0.0022234437859105895   0.0022234437859105895    0.002011066520262779     -9.425424134533925E-4    0.0032919678927199724
0.22602219162817022       -0.0010546264093193338   -2.132991986303013E-4    -1.3351861882789345E-4   -0.0032832248898411417   9.352807474361874E-4     -0.0020034296980593396   -0.0022150759392179937   0.0022150759392179937    0.0020034296980593396    -9.352807474361874E-4    0.0032832248898411417
0.2289691709163071        -0.001044228329450623    -2.1255195471730858E-4   -1.3395282227877237E-4   -0.0032619238121682575   9.149895056342287E-4     -0.0019866120838644124   -0.0021903012339380785   0.0021903012339380785    0.0019866120838644124    -9.149895056342287E-4    0.0032619238121682575
0.2319809753529451        -0.0010343124182287577   -2.123473145367682E-4    -1.344391823052729E-4    -0.0032434235092889084   8.938261636261174E-4     -0.001969339622068305    -0.002167910050846725    0.002167910050846725     0.001969339622068305     -8.938261636261174E-4    0.0032434235092889084
0.23238333595486735       -0.0010329877067171798   -2.123199757277745E-4    -1.3450415734503083E-4   -0.003240951969997803    8.90998856870911E-4      -0.001967032115631162    -0.0021649187112375563   0.0021649187112375563    0.001967032115631162     -8.90998856870911E-4     0.003240951969997803
0.23438493222211168       -0.00102660896696749     -2.1219998923931844E-4   -1.346366930446743E-4    -0.003228364673831629    8.78071194038326E-4      -0.0019551647383957245   -0.002151271129474235    0.002151271129474235     0.0019551647383957245    -8.78071194038326E-4     0.003228364673831629
0.24010963374187028       -0.0010077194502831433   -2.112679898021417E-4    -1.3456173115996913E-4   -0.003187489794612585    8.433880065199832E-4     -0.001919881855799741    -0.002110995945332831    0.002110995945332831     0.001919881855799741     -8.433880065199832E-4    0.003187489794612585
0.24216392894365307       -0.0010012103440835004   -2.1084220949506578E-4   -1.3474547992368009E-4   -0.003173929236346915    8.309121399870817E-4     -0.001908875979376527    -0.0020959653969574747   0.0020959653969574747    0.001908875979376527     -8.309121399870817E-4    0.003173929236346915
0.2448228566792643        -9.927854385522754E-4    -2.1029111096415427E-4   -1.3498331072997867E-4   -0.0031563774529169246   8.147643012921717E-4     -0.0018946307871320056   -0.002076510967077095    0.002076510967077095     0.0018946307871320056    -8.147643012921717E-4    0.0031563774529169246
0.2455488114208588        -9.90563265843649E-4     -2.1024354767928177E-4   -1.350693331034009E-4    -0.0031521345071387433   8.101185562358478E-4     -0.0018906732210630594   -0.0020715798423115365   0.0020715798423115365    0.0018906732210630594    -8.101185562358478E-4    0.0031521345071387433
0.24675338038676561       -9.868139342523268E-4    -2.1005376367591873E-4   -1.3506348635590855E-4   -0.0031440431049560404   8.032126320532615E-4     -0.0018837205229005345   -0.002063535214108772    0.002063535214108772     0.0018837205229005345    -8.032126320532615E-4    0.0031440431049560404
0.24725764639355027       -9.852331212662803E-4    -2.1001750401600466E-4   -1.3507127443332915E-4   -0.003140803852313888    8.001286327512287E-4     -0.0018806988282178663   -0.0020602336568472553   0.0020602336568472553    0.0018806988282178663    -8.001286327512287E-4    0.003140803852313888
0.25361246796109166       -9.653115236911599E-4    -2.0956055537034256E-4   -1.35169420732497E-4     -0.003099982396423333    7.612636983413034E-4     -0.0018426190642012838   -0.002018627030563357    0.002018627030563357     0.0018426190642012838    -7.612636983413034E-4    0.003099982396423333
0.25765040446769155       -9.52808800467636E-4     -2.0829691498345268E-4   -1.3532589045156383E-4   -0.003071811907691883    7.394232941786577E-4     -0.0018220304177911728   -0.0019892047840793714   0.0019892047840793714    0.0018220304177911728    -7.394232941786577E-4    0.003071811907691883
0.2592515624674051        -9.479915751862903E-4    -2.0802351065499035E-4   -1.354374193001441E-4    -0.003061803359538126    7.301629412070324E-4     -0.0018136622956081898   -0.0019783040051369726   0.0019783040051369726    0.0018136622956081898    -7.301629412070324E-4    0.003061803359538126
0.25979658690147556       -9.464240697558362E-4    -2.0787458673665135E-4   -1.3545024106660698E-4   -0.003058272863988052    7.274234150352895E-4     -0.00181102534356815     -0.0019746709354551955   0.0019746709354551955    0.00181102534356815      -7.274234150352895E-4    0.003058272863988052
0.26208286263236075       -9.398486771685477E-4    -2.0724987870713435E-4   -1.3550402598276606E-4   -0.003043463094389561    7.159316142846271E-4     -0.00179996382214676     -0.0019594308865274316   0.0019594308865274316    0.00179996382214676      -7.159316142846271E-4    0.003043463094389561
0.26506014609395817       -9.310816508368464E-4    -2.064147460953335E-4    -1.3557512436319588E-4   -0.003023708037412476    7.006185659349084E-4     -0.0017852195608404802   -0.0019391070425069075   0.0019391070425069075    0.0017852195608404802    -7.006185659349084E-4    0.003023708037412476
0.2667838124253149        -9.262379777776696E-4    -2.0608171188122974E-4   -1.3561993680994363E-4   -0.003013200838438802    6.91751072671875E-4      -0.0017767105671514284   -0.0019282413439592515   0.0019282413439592515    0.0017767105671514284    -6.91751072671875E-4     0.003013200838438802
0.2695203304564881        -9.185576714606106E-4    -2.0569691668790677E-4   -1.35655888718078E-4     -0.002996829647857252    6.774010379851882E-4     -0.0017626481477298168   -0.0019115825381126272   0.0019115825381126272    0.0017626481477298168    -6.774010379851882E-4    0.002996829647857252