% Model:              Cylinder_slice_potential_3.mph
% Version:            COMSOL 6.2.0.339
% Date:               May 16 2024, 16:03
% Dimension:          1
% Nodes:              791
% Expressions:        11
% Description:        Line graph
% Arc length (m)          Magnetic scalar potential Magnetic scalar potential Magnetic scalar potential Magnetic scalar potential Magnetic scalar potential Magnetic scalar potential Magnetic scalar potential Magnetic scalar potential Magnetic scalar potential Magnetic scalar potential Magnetic scalar potential
0                         0.0019226764891808717    -0.01459423303196629     -2.180139318554424E-7    -0.03993821817326456     -0.047628924129988       0.047627180018533215     -0.03993647406180968     0.03993647406180968      -0.047627180018533215    0.047628924129988        0.03993821817326456
0.00392316619040937       0.002225427008045363     -0.014557971005380305    -1.328410537031156E-4    -0.03975442321486265     -0.04865613124704407     0.04759340281741921      -0.03869169478523771     0.03869169478523771      -0.04759340281741921     0.04865613124704407      0.03975442321486265
0.004095724516727162      0.002238764988950859     -0.014556476678282705    -1.386989438873279E-4    -0.03974669583249572     -0.04870175578829912     0.04759216423720054      -0.03863710428139708     0.03863710428139708      -0.04759216423720054     0.04870175578829912      0.03974669583249572
0.004646715544909772      0.0022812724232109346    -0.014551698304964248    -1.573091665607155E-4    -0.03972178673471375     -0.04884687642755746     0.047588403095071785     -0.03846331340222801     0.03846331340222801      -0.047588403095071785    0.04884687642755746      0.03972178673471375
0.004817163194553953      0.002294427295987414     -0.014550211807163005    -1.6307571523076908E-4   -0.039714083690437274    -0.04889179287438689     0.047587187152540796     -0.0384094779685911      0.0384094779685911       -0.047587187152540796    0.04889179287438689      0.039714083690437274
0.0119757782648332        0.0028469175808455423    -0.014487780523515875    -4.052644593942652E-4    -0.03939056424643361     -0.050778234569815756    0.04753611889466169      -0.03614844857127948     0.03614844857127948      -0.04753611889466169     0.050778234569815756     0.03939056424643361
0.012240314619968946      0.002866433492673015     -0.01448484679669187     -4.141393547547671E-4    -0.03937823082374867     -0.05084396479444069     0.04753084995640262      -0.03606511598571051     0.03606511598571051      -0.04753084995640262     0.05084396479444069      0.03937823082374867
0.012292325823855468      0.002870270568558367     -0.014484269988774818    -4.1588427178830583E-4   -0.039375805916360966    -0.0508568881905944      0.04752981401628801      -0.03604873174205449     0.03604873174205449      -0.04752981401628801     0.0508568881905944       0.039375805916360966
0.013202520042011444      0.002938175568659201     -0.014474081290169747    -4.473186818670465E-4    -0.03933516746065904     -0.05108786973529582     0.0475093202803595       -0.03575661800572265     0.03575661800572265      -0.0475093202803595      0.05108786973529582      0.03933516746065904
0.014325441222475165      0.0030251940686595825    -0.014460175588556534    -4.855063247432193E-4    -0.039272163927323335    -0.05137294020196163     0.04748888960401593      -0.03538811332937755     0.03538811332937755      -0.04748888960401593     0.05137294020196163      0.039272163927323335
0.014613991426289918      0.003047663747693602     -0.014456546865538539    -4.954842643851454E-4    -0.03925625015876902     -0.051446905149543386    0.047483031034462275     -0.03529237604368783     0.03529237604368783      -0.047483031034462275    0.051446905149543386     0.03925625015876902
0.014870200577865412      0.0030676149982051945    -0.014453324854139995    -5.043438646083723E-4    -0.0392421200244431      -0.051512580017263845    0.047477829100396926     -0.0352073691075761      0.0352073691075761       -0.047477829100396926    0.051512580017263845     0.0392421200244431
0.015125263479305559      0.003087719462825756     -0.014450328571119372    -5.130339224386084E-4    -0.03922768247746106     -0.05157856032876405     0.04747428894925524      -0.03512341109795217     0.03512341109795217      -0.04747428894925524     0.05157856032876405      0.03922768247746106
0.0154004594148332        0.0031094108452976834    -0.014447095780680975    -5.224099178533798E-4    -0.039212105322861096    -0.0516497487040518      0.047470469361224815     -0.03503282598003403     0.03503282598003403      -0.047470469361224815    0.0516497487040518       0.039212105322861096
0.021361675997380994      0.003576580531531408     -0.014387243691414996    -7.226474337699543E-4    -0.038899159746262       -0.053205481872387606    0.04742430240222803      -0.03311798027610234     0.03311798027610234      -0.04742430240222803     0.053205481872387606     0.038899159746262
0.021669833194675605      0.003598644838687554     -0.014384504222742827    -7.326293579454049E-4    -0.038886740422635       -0.053281319777385185    0.04742028491382201      -0.033025705559071736    0.033025705559071736     -0.04742028491382201     0.053281319777385185     0.038886740422635
0.02224396805548809       0.00364270955578947      -0.014378384347101885    -7.520242448251519E-4    -0.03885783090902733     -0.05342866913218519     0.04741247517358403      -0.03284163695042609     0.03284163695042609      -0.04741247517358403     0.05342866913218519      0.03885783090902733
0.024384016690795245      0.00380695779106594      -0.014355572926985173    -8.243173662360388E-4    -0.0387500726637678      -0.05397790382803154     0.047383364898143286     -0.03215553373387947     0.03215553373387947      -0.047383364898143286    0.05397790382803154      0.0387500726637678
0.024591075241928106      0.0038244191209927236    -0.014351909938004311    -8.316251568281177E-4    -0.03873339219933996     -0.05403106868331084     0.04737806742868595      -0.032080390944715       0.032080390944715        -0.04737806742868595     0.05403106868331084      0.03873339219933996
0.02951001713248138       0.00421771336570565      -0.01428479432070058     -9.96488452027346E-4     -0.038404910038799825    -0.055275763501622395    0.047303855885403694     -0.030433002422581033    0.030433002422581033     -0.047303855885403694    0.055275763501622395     0.038404910038799825
0.02983507639464559       0.004242424407535299     -0.014279958733807397    -0.001007378064170581    -0.03838453964303392     -0.05535423727317507     0.047295212759810495     -0.030325515129669252    0.030325515129669252     -0.047295212759810495    0.05535423727317507      0.03838453964303392
0.029847465661757947      0.00424336624102072      -0.014279774430867484    -0.001007793109453999    -0.038383763248377015    -0.05535722821245986     0.04729488333682792      -0.030321418372744997    0.030321418372744997     -0.04729488333682792     0.05535722821245986      0.038383763248377015
0.029923318248939897      0.0042492093062096925    -0.014278600974720843    -0.001010362527612949    -0.03837883442219493     -0.055375671647033685    0.04729277142613014      -0.03029593420129132     0.03029593420129132      -0.04729277142613014     0.055375671647033685     0.03837883442219493
0.029993457016615804      0.004254656616787284     -0.014277657664221318    -0.0010127341268519163   -0.03837459626649705     -0.05539322273364616     0.04729134971883089      -0.030272723251681698    0.030272723251681698     -0.04729134971883089     0.05539322273364616      0.03837459626649705
0.030017588268711103      0.0042565946170647646    -0.014277311396338236    -0.0010135564631117496   -0.03837297080733217     -0.05539934927559121     0.04729089757069726      -0.030264519102438152    0.030264519102438152     -0.04729089757069726     0.05539934927559121      0.03837297080733217
0.030624927332342816      0.004305370506073509     -0.014268596473007808    -0.0010342531485578682   -0.03833206100110788     -0.05555354302540188     0.047279517836939        -0.030058035812644907    0.030058035812644907     -0.047279517836939       0.05555354302540188      0.03833206100110788
0.04172166859150857       0.005186198519242551     -0.014120651118415019    -0.0014042163052604918   -0.037606421537801915    -0.058351215614772106    0.047117485172688205     -0.026372691095717944    0.026372691095717944     -0.047117485172688205    0.058351215614772106     0.037606421537801915
0.04269371808450713       0.005260960542501491     -0.01410330194329122     -0.001436449499584471    -0.03753378274320856     -0.05857762491321449     0.047086028916538764     -0.026042186746532754    0.026042186746532754     -0.047086028916538764    0.05857762491321449      0.03753378274320856
0.04303655656342025       0.0052873288483533815    -0.01409718294950265     -0.001447818035232234    -0.037508163292730115    -0.05865747868614363     0.047074934404285784     -0.02592561901087221     0.02592561901087221      -0.047074934404285784    0.05865747868614363      0.037508163292730115
0.04532466649060931       0.0054685252309521985    -0.014058001676422214    -0.0015246535217069382   -0.03733556865418999     -0.059209669577998766    0.0470124414043433       -0.025138340480534455    0.025138340480534455     -0.0470124414043433      0.059209669577998766     0.03733556865418999
0.04631723713682923       0.005550824371407279     -0.014042624939092498    -0.0015582493448234756   -0.03725922345375683     -0.059462520939385935    0.04699652618079816      -0.024793228695168992    0.024793228695168992     -0.04699652618079816     0.059462520939385935     0.03725922345375683
0.047331248786862866      0.005634901295832783     -0.01402691604134177     -0.0015925708877407244   -0.03718122908332264     -0.059720834266653755    0.04698026716472799      -0.024440661981396813    0.024440661981396813     -0.04698026716472799     0.059720834266653755     0.03718122908332264
0.05390639346523375       0.0061671590256136355    -0.013929690144306993    -0.001809595093797709    -0.03669313275688454     -0.06136176885933907     0.046885008108957446     -0.022216372006502852    0.022216372006502852     -0.046885008108957446    0.06136176885933907      0.03669313275688454
0.058801025410206244      0.006567490139749379     -0.013839479004456944    -0.0019719155593952496   -0.03627111897145305     -0.06254107953045056     0.04676575505528862      -0.020495794496291034    0.020495794496291034     -0.04676575505528862     0.06254107953045056      0.03627111897145305
0.05984932235417397       0.00665046276614519      -0.013821150953847283    -0.002005496537859054    -0.03618451348068766     -0.06278636454526842     0.04674239224239604      -0.02014054117781522     0.02014054117781522      -0.04674239224239604     0.06278636454526842      0.03618451348068766
0.06111997558522183       0.006753711596735296     -0.01379560256128889     -0.0020481723717525233   -0.03607207397740614     -0.06308692036434732     0.046701541390327186     -0.019686695003385934    0.019686695003385934     -0.046701541390327186    0.06308692036434732      0.03607207397740614
0.06117059560583419       0.006757827707684879     -0.01379459874899688     -0.0020499378308424716   -0.03606789215499073     -0.06309920298573024     0.04669970033899053      -0.019668389508250946    0.019668389508250946     -0.04669970033899053     0.06309920298573024      0.03606789215499073
0.0611789993570661        0.006758511049414983     -0.013794432099740645    -0.0020502309259226898   -0.0360671979040827      -0.06310124210174263     0.046699394694361164     -0.019665350496701164    0.019665350496701164     -0.046699394694361164    0.06310124210174263      0.0360671979040827
0.06125535186751933       0.00676469403804195      -0.0137928640516763      -0.002052782185447786    -0.03606033282073612     -0.06311910897290392     0.046696851489321685     -0.019638075337153817    0.019638075337153817     -0.046696851489321685    0.06311910897290392      0.03606033282073612
0.06358452224256807       0.0069564064632594135    -0.013749519408746125    -0.0021310249289851254   -0.035859845015660016    -0.06368547086869766     0.04663727143681673      -0.018811645583779006    0.018811645583779006     -0.04663727143681673     0.06368547086869766      0.035859845015660016
0.06452808391173243       0.007034070380796554     -0.013731960219401006    -0.0021627215598898288   -0.03577862613616919     -0.0639149076593554      0.04661313518023684      -0.01847685365705055     0.01847685365705055      -0.04661313518023684     0.0639149076593554       0.03577862613616919
0.07123745056496546       0.007585443603968756     -0.013605191820493264    -0.0023839454988623726   -0.03518047024899175     -0.06552224466486675     0.04645068067396785      -0.016108906258092758    0.016108906258092758     -0.04645068067396785     0.06552224466486675      0.03518047024899175
0.07315915991803319       0.007741968954121319     -0.013564115176108324    -0.0024467553622194143   -0.034995429068959964    -0.06596330488544525     0.046389261987689986     -0.015421386171204636    0.015421386171204636     -0.046389261987689986    0.06596330488544525      0.034995429068959964
0.07423433389751172       0.007829543062736729     -0.013541133272452353    -0.002481896748521296    -0.03489190068596876     -0.06621007293691566     0.04635489894874536      -0.015036726697798378    0.015036726697798378     -0.04635489894874536     0.06621007293691566      0.03489190068596876
0.07742196645449113       0.008088900753807192     -0.013472776334690845    -0.0025878817150160136   -0.034592054356522184    -0.06694765737175094     0.04624460365162289      -0.013889000636394066    0.013889000636394066     -0.04624460365162289     0.06694765737175094      0.034592054356522184
0.07919379821830129       0.008237431390872137     -0.013434963564002152    -0.002647257309650238    -0.03441905714886311     -0.06736878271235167     0.046190724235149805     -0.0132409986716612      0.0132409986716612       -0.046190724235149805    0.06736878271235167      0.03441905714886311
0.08099258287253845       0.008388221458018218     -0.013396575590020499    -0.0027075361186465145   -0.034243428328611096    -0.06779631416068396     0.0461360252115119       -0.01258313937943897     0.01258313937943897      -0.0461360252115119      0.06779631416068396      0.034243428328611096
0.08305746258874695       0.00856085618071641      -0.013351083403764844    -0.0027757536731576847   -0.03403455254249244     -0.06827797726535806     0.04607194788009664      -0.011828523157230951    0.011828523157230951     -0.04607194788009664     0.06827797726535806      0.03403455254249244
0.08483286538235307       0.008709587858371459     -0.013313372475433443    -0.0028336415095227023   -0.033855507747648214    -0.06869385918113402     0.046024727104952465     -0.011186375671466579    0.011186375671466579     -0.046024727104952465    0.06869385918113402      0.033855507747648214
0.08663007768932712       0.008857912548758357     -0.013269549583098936    -0.002892151843247265    -0.03366143102476914     -0.06909308121980254     0.04595586647382448      -0.010524216278791007    0.010524216278791007     -0.04595586647382448     0.06909308121980254      0.03366143102476914
0.08814913585405124       0.008983281060362728     -0.013232509149899008    -0.0029416065458553724   -0.03349739151239303     -0.06943051575384393     0.045897663387001006     -0.009964539145550044    0.009964539145550044     -0.045897663387001006    0.06943051575384393      0.03349739151239303
0.09035662569841628       0.009163666638275163     -0.013183357386893212    -0.0030145861899183316   -0.03328108364380263     -0.06993575019690326     0.04581906067755666      -0.00916439412445596     0.00916439412445596      -0.04581906067755666     0.06993575019690326      0.03328108364380263
0.09201061582562806       0.009296172355607715     -0.013139594485618264    -0.0030685923148347075   -0.03310080800497818     -0.07028549742740903     0.04573675890873141      -0.008552069486300497    0.008552069486300497     -0.04573675890873141     0.07028549742740903      0.03310080800497818
0.0922141161963769        0.009312475332366697     -0.013134210072200081    -0.0030752370137735814   -0.03307862760696116     -0.07032852893642794     0.04572663282623934      -0.008476731496772494    0.008476731496772494     -0.04572663282623934     0.07032852893642794      0.03307862760696116
0.09319518798208712       0.009394212552689154     -0.013108671998317552    -0.0031077883749190925   -0.03296874438925071     -0.0705455946000073      0.04568328760065461      -0.008106437389897948    0.008106437389897948     -0.04568328760065461     0.0705455946000073       0.03296874438925071
0.09763065873252635       0.009777144341182284     -0.013001675047160639    -0.003256873823501705    -0.032478231753124163    -0.07158680911785327     0.04553181852983969      -0.006423241165110499    0.006423241165110499     -0.04553181852983969     0.07158680911785327      0.032478231753124163
0.10108003051235245       0.01006187675258607      -0.012915839079833815    -0.003365324429545259    -0.03208506145251034     -0.07233256846285459     0.04540997302649258      -0.00516246601614824     0.00516246601614824      -0.04540997302649258     0.07233256846285459      0.03208506145251034
0.10283000610534358       0.010206972383958932     -0.01287205719280498     -0.003422864945014014    -0.031893686590553125    -0.07272157612638883     0.04533865656627677      -0.004510767030440989    0.004510767030440989     -0.04533865656627677     0.07272157612638883      0.031893686590553125
0.10412413049540079       0.010316953602757141     -0.012834313660114196    -0.0034676631536383717   -0.031739686389381794    -0.07300750080041034     0.045266195571303416     -0.003998381160274796    0.003998381160274796     -0.045266195571303416    0.07300750080041034      0.031739686389381794
0.10490469176663647       0.010383289637080233     -0.012811548352478863    -0.0034946835443686367   -0.03164679996075066     -0.07317995850907158     0.04522249015412254      -0.0036893316058015484   0.0036893316058015484    -0.04522249015412254     0.07317995850907158      0.03164679996075066
0.10982273893769864       0.01079934021604313      -0.012667530087486382    -0.003657523692548511    -0.031034004600566937    -0.07423136546473942     0.044971175924351396     -0.0017738150601788187   0.0017738150601788187    -0.044971175924351396    0.07423136546473942      0.031034004600566937
0.11058552136516976       0.010864423494738113     -0.01264526829630476     -0.003682728339884806    -0.030937871258977283    -0.07439556523792971     0.04493373851885132      -0.0014760445398988068   0.0014760445398988068    -0.04493373851885132     0.07439556523792971      0.030937871258977283
0.11496335954541509       0.011235180516837109     -0.012516915321901939    -0.0038277118314658082   -0.030391232257894835    -0.07533195432524327     0.04471025967351684      2.3046239383165624E-4    -2.3046239383165624E-4   -0.04471025967351684     0.07533195432524327      0.030391232257894835
0.11607987264161304       0.011329737477062094     -0.012484180494583885    -0.0038646880650354144   -0.030251818789769135    -0.0755707686980175      0.04465326417773423      6.656857305142065E-4     -6.656857305142065E-4    -0.04465326417773423     0.0755707686980175       0.030251818789769135
0.12013868210078245       0.011671298257605614     -0.01235876796403591     -0.003999678188952883    -0.029732420132708035    -0.07641761316313049     0.044420187651507466     0.0022650053789150504    -0.0022650053789150504   -0.044420187651507466    0.07641761316313049      0.029732420132708035
0.12057111695130096       0.011707386195307718     -0.012344729729152234    -0.004014006388801969    -0.029675442352049143    -0.07650498713328001     0.0443929360228643       0.002436608758366622     -0.002436608758366622    -0.0443929360228643      0.07650498713328001      0.029675442352049143
0.12182822678198055       0.011813957250154768     -0.012302318540135896    -0.004055553992430643    -0.029501257089820727    -0.0767570860904398      0.044312654150994696     0.0029431748496244418    -0.0029431748496244418   -0.044312654150994696    0.0767570860904398       0.029501257089820727
0.12550986224120944       0.012126770380571502     -0.012180291502604943    -0.004176694259365882    -0.028994110784135364    -0.07750119230642136     0.044087638231494336     0.0044194432907917235    -0.0044194432907917235   -0.044087638231494336    0.07750119230642136      0.028994110784135364
0.12624470357054776       0.012189438579937557     -0.012156507358386448    -0.004200990253483881    -0.02889460592921976     -0.07765236024896997     0.04404443822109897      0.004713316098651322     -0.004713316098651322    -0.04404443822109897     0.07765236024896997      0.02889460592921976
0.13131949496490336       0.012622223218124683     -0.011992254797209983    -0.0043687776341669515   -0.028207428492048388    -0.07869632136454711     0.04374610029121155      0.006742792581287243     -0.006742792581287243    -0.04374610029121155     0.07869632136454711      0.028207428492048388
0.13253085620782457       0.012727130777633894     -0.01195150437503368     -0.004408727399362435    -0.028035161167282985    -0.07894368427781856     0.043673865082919136     0.00723465802761651      -0.00723465802761651     -0.043673865082919136    0.07894368427781856      0.028035161167282985
0.13458440868822913       0.012904974653936077     -0.011882422479747117    -0.004476451985969588    -0.027743126075247544    -0.07936302469099184     0.043551408803235186     0.008068489812509176     -0.008068489812509176    -0.043551408803235186    0.07936302469099184      0.027743126075247544
0.13541818333561323       0.012976978961860071     -0.011854570128359911    -0.004503465723000961    -0.027623615353363433    -0.07953153120080371     0.04350380541679607      0.00840411043064428      -0.00840411043064428     -0.04350380541679607     0.07953153120080371      0.027623615353363433
0.13616809789374648       0.01304102026145207      -0.011826687542732653    -0.004528378564667598    -0.027511536363964202    -0.07967561740977248     0.043448588892431736     0.008715492153376598     -0.008715492153376598    -0.043448588892431736    0.07967561740977248      0.027511536363964202
0.14090795006336299       0.013451442417330331     -0.011650900677026892    -0.0046840993418316625   -0.026786214563746663    -0.08059198423306799     0.043119189498414735     0.010686580170906651     -0.010686580170906651    -0.043119189498414735    0.08059198423306799      0.026786214563746663
0.14127308664399635       0.013482380474498042     -0.011637584647408779    -0.004696231393770427    -0.026732918568311958    -0.08066244046630411     0.04309258931614076      0.01083693258185147      -0.01083693258185147     -0.04309258931614076     0.08066244046630411      0.026732918568311958
0.14228810695862887       0.0135683832421912       -0.011600568250560267    -0.004729956525212095    -0.02658476436814678     -0.08085829733691156     0.04301864513521487      0.011254887833549991     -0.011254887833549991    -0.04301864513521487     0.08085829733691156      0.02658476436814678
0.1457644250986216        0.013862105361629077     -0.01147397501943715     -0.004845395171244949    -0.026079295020033096    -0.0815277164665494      0.04276455509658986      0.012683866349926525     -0.012683866349926525    -0.04276455509658986     0.0815277164665494       0.026079295020033096
0.14658206851353692       0.01393254686359577      -0.011441952157474646    -0.004872404026797563    -0.025950378852422646    -0.08168056630680572     0.04270133409242527      0.013028853361957877     -0.013028853361957877    -0.04270133409242527     0.08168056630680572      0.025950378852422646
0.14865329983725428       0.014110033062359103     -0.011358341458765214    -0.004940565948987024    -0.025617222047525524    -0.08205735429696193     0.0425328267050658       0.013907305544370686     -0.013907305544370686    -0.0425328267050658      0.08205735429696193      0.025617222047525524
0.15382760911721644       0.01455342558680108      -0.01114946685877129     -0.005110846719891935    -0.02478493628227944     -0.08299863862948374     0.042111864870348334     0.016101837476856062     -0.016101837476856062    -0.042111864870348334    0.08299863862948374      0.02478493628227944
0.15549677569580017       0.014693229866773197     -0.011083160156523827    -0.0051664239625092605   -0.02452871658606212     -0.08330163605315488     0.041970244353080874     0.016802675114011987     -0.016802675114011987    -0.041970244353080874    0.08330163605315488      0.02452871658606212
0.15860350545349972       0.014958595839638008     -0.010951206876629347    -0.005269324460097263    -0.024013726791001062    -0.08384811014955307     0.04169351446877505      0.018140868889777062     -0.018140868889777062    -0.04169351446877505     0.08384811014955307      0.024013726791001062
0.16068015871684715       0.015135019554147349     -0.010860506609823049    -0.0053378501424697815   -0.023662881291053567    -0.08420295950764295     0.041500158367884746     0.019039919848704713     -0.019039919848704713    -0.041500158367884746    0.08420295950764295      0.023662881291053567
0.16522912629297873       0.015524500123971096     -0.010664458080254562    -0.005487870914631961    -0.022895857651349327    -0.0849938581472337      0.04109089083017804      0.021007109665706392     -0.021007109665706392    -0.04109089083017804     0.0849938581472337       0.022895857651349327
0.16585143270353214       0.015578089068997086     -0.010636321269901546    -0.005508156513449028    -0.022785411725506573    -0.0850977680014949      0.041032515893902714     0.02127984038208568      -0.02127984038208568     -0.041032515893902714    0.0850977680014949       0.022785411725506573
0.16669399674810595       0.015650645156319712     -0.010598225784574054    -0.005535621948315288    -0.02263587483434388     -0.08523845545962272     0.04095347987310045      0.021649100752178456     -0.021649100752178456    -0.04095347987310045     0.08523845545962272      0.02263587483434388
0.16773099160918226       0.015738837724315828     -0.010551901899901468    -0.005570068132027815    -0.022458302779183995    -0.08541365367644731     0.040853108620224815     0.022102242277038546     -0.022102242277038546    -0.040853108620224815    0.08541365367644731      0.022458302779183995
0.16993037209855144       0.015927017113563976     -0.01044898522975516     -0.005643093420966725    -0.022065295146004416    -0.0857733636002603      0.040628616232526546     0.023079452221729413     -0.023079452221729413    -0.040628616232526546    0.0857733636002603       0.022065295146004416
0.17013919718535006       0.015944884225454526     -0.01043921357692828     -0.005650026969925111    -0.022027980159576223    -0.08580751706139432     0.040607301301993456     0.023172235599824693     -0.023172235599824693    -0.040607301301993456    0.08580751706139432      0.022027980159576223
0.1717873545369716        0.016084811223866485     -0.01036391693090446     -0.005704636650167174    -0.021740674945649106    -0.08607991984111503     0.04044282663977766      0.023896418255688324     -0.023896418255688324    -0.04044282663977766     0.08607991984111503      0.021740674945649106
0.17193138164005436       0.016097038988530165     -0.010357337002241705    -0.005709408812265535    -0.02171556827872692     -0.0861037242328476      0.04042845373472333      0.023959702219397395     -0.023959702219397395    -0.04042845373472333     0.0861037242328476       0.02171556827872692
0.17457795634816484       0.016320644682315047     -0.010233723027099446    -0.005796876198678354    -0.021247384511381646    -0.08652996324064184     0.04015495365121504      0.025127625078045213     -0.025127625078045213    -0.04015495365121504     0.08652996324064184      0.021247384511381646
0.17485597264459618       0.016343433742481456     -0.010220303941662423    -0.005806122134056533    -0.021198532876250478    -0.08657226784617629     0.04012329077372407      0.025250444196201805     -0.025250444196201805    -0.04012329077372407     0.08657226784617629      0.021198532876250478
0.17598921752249563       0.016436326087416724     -0.010165605314161785    -0.005843810244585334    -0.020999404745993225    -0.08674470909566012     0.03999422713897749      0.025751077210689474     -0.025751077210689474    -0.03999422713897749     0.08674470909566012      0.020999404745993225
0.1782244924816757        0.01662543766375882      -0.010054265110196374    -0.005917599699133549    -0.020582318799605658    -0.08708406945464094     0.039743271861572595     0.026758478793462746     -0.026758478793462746    -0.039743271861572595    0.08708406945464094      0.020582318799605658
0.18240511235848966       0.016981991413767977     -0.009844712025501176    -0.0060555440770017595   -0.019792329556974596    -0.0877202952120465      0.03927594259603247      0.028652023059039498     -0.028652023059039498    -0.03927594259603247     0.0877202952120465       0.019792329556974596
0.1825786919934212        0.0169967955508538       -0.009836011366505146    -0.0060612715373920285   -0.01975952914737595     -0.08774671135079114     0.03925653905165495      0.0287306431517603       -0.0287306431517603      -0.03925653905165495     0.08774671135079114      0.01975952914737595
0.18385883245592735       0.017105667413310287     -0.009772899731988758    -0.006103439762590425    -0.019521123419707385    -0.08794379307294854     0.039116274972225175     0.02930639468101603      -0.02930639468101603     -0.039116274972225175    0.08794379307294854      0.019521123419707385