% Model:              Cylinder_slice_potential_3.mph
% Version:            COMSOL 6.2.0.339
% Date:               May 16 2024, 16:03
% Dimension:          1
% Nodes:              785
% Expressions:        11
% Description:        Line graph
% Arc length (m)          Magnetic scalar potential Magnetic scalar potential Magnetic scalar potential Magnetic scalar potential Magnetic scalar potential Magnetic scalar potential Magnetic scalar potential Magnetic scalar potential Magnetic scalar potential Magnetic scalar potential Magnetic scalar potential
0                         0.001922676489180872     -0.014594233031966292    -2.180139318553975E-7    -0.03993821817326455     -0.047628924129987996    0.04762718001853321      -0.03993647406180969     0.03993647406180969      -0.04762718001853321     0.047628924129987996     0.03993821817326455
1.7712345996402198E-4     0.0019090078815296662    -0.01459587019320354     5.769662994158412E-6     -0.039946516164574654    -0.047582547690693276    0.047628704994646595     -0.039992673468527896    0.039992673468527896     -0.047628704994646595    0.047582547690693276     0.039946516164574654
8.798432729895887E-4      0.0018544618796586406    -0.014601198287622887    2.9800024528377213E-5    -0.03997547100543787     -0.04739331852407239     0.04763171872029946      -0.040213871201664864    0.040213871201664864     -0.04763171872029946     0.04739331852407239      0.03997547100543787
0.0010747344180747393     0.0018393341821504527    -0.014602675972474319    3.646456505990151E-5     -0.039983501292882445    -0.047340838021484206    0.04763255454196348      -0.04027521781336163     0.04027521781336163      -0.04763255454196348     0.047340838021484206     0.039983501292882445
0.0016509272076485866     0.0017947311959245645    -0.014606912284882282    5.607842689431989E-5     -0.04000696075522044     -0.04718588553891864     0.04763451295407326      -0.040455588170374965    0.040455588170374965     -0.04763451295407326     0.04718588553891864      0.04000696075522044
0.0028457200778958134     0.0017047031546624757    -0.014615545976866439    9.650157291547234E-5     -0.040051225329612486    -0.046870037948262326    0.04764205053158617      -0.040823237912936225    0.040823237912936225     -0.04764205053158617     0.046870037948262326     0.040051225329612486
0.0034261070688639127     0.0016609708013215622    -0.014619739910925146    1.16137669404587E-4      -0.04007272745251397     -0.04671661065780017     0.047645712013036925     -0.041001828807750634    0.041001828807750634     -0.047645712013036925    0.04671661065780017      0.04007272745251397
0.012330025184761239      9.879420532164763E-4     -0.014687438605080495    4.2095440825582923E-4    -0.04040261407578523     -0.04435438228865108     0.04772201755469777      -0.04377024934183182     0.04377024934183182      -0.04772201755469777     0.04435438228865108      0.04040261407578523
0.015341947349946802      7.58917743045303E-4      -0.014705336349701927    5.252425665624573E-4     -0.04049720329676535     -0.04353287426894652     0.04773481480144623      -0.044699143829264966    0.044699143829264966     -0.04773481480144623     0.04353287426894652      0.04049720329676535
0.015780635411867257      7.255602307154745E-4     -0.014707943165705168    5.404321921701861E-4     -0.04051098026700382     -0.04341322118986567     0.047736678727227214     -0.04483443780436526     0.04483443780436526      -0.047736678727227214    0.04341322118986567      0.04051098026700382
0.017366695724035784      6.041459930881467E-4     -0.014718042716648129    5.944381148584752E-4     -0.0405680837043342      -0.04298466767668674     0.0477401725955546       -0.04532358862320196     0.04532358862320196      -0.0477401725955546      0.04298466767668674      0.0405680837043342
0.018645197519218296      5.084823474707344E-4     -0.014723364269058785    6.39213326800229E-4      -0.040596274805033986    -0.04263020419491687     0.04774391080931876      -0.04570998141943576     0.04570998141943576      -0.04774391080931876     0.04263020419491687      0.040596274805033986
0.02518643447210733       2.403082152478334E-5     -0.014757889533534303    8.636462403096537E-4     -0.040771021996314744    -0.040867145282413815    0.047776315204891104     -0.04768019191879191     0.04768019191879191      -0.047776315204891104    0.040867145282413815     0.040771021996314744
0.02597184445396408       -3.413754432773919E-5    -0.014762035001362575    8.905940258427314E-4     -0.0407920039893723      -0.04065545381206127     0.04778020601880319      -0.04791675619611408     0.04791675619611408      -0.04778020601880319     0.04065545381206127      0.0407920039893723
0.02902838845080771       -2.6080618129043696E-4   -0.01478211807056521     9.956749469714114E-4     -0.04088526678639087     -0.03984204206122905     0.04780744163700041      -0.0488506663621621      0.0488506663621621       -0.04780744163700041     0.03984204206122905      0.04088526678639087
0.03058853135457944       -3.7511522516176757E-4   -0.014786113838092606    0.0010516484784401305    -0.04090197805084085     -0.03940151715019371     0.04781470497771481      -0.04931516587836182     0.04931516587836182      -0.04781470497771481     0.03940151715019371      0.04090197805084085
0.032735107045933826      -5.341759049315909E-4    -0.01479591019386767     0.00112909070434241      -0.04093971957409657     -0.03880301595437015     0.04783574158910949      -0.049972445208835786    0.049972445208835786     -0.04783574158910949     0.03880301595437015      0.04093971957409657
0.033264956593720175      -5.734376135152069E-4    -0.01479832827523246     0.0011482061394696948    -0.040949035494849025    -0.03865528504078815     0.047840934156545764     -0.050134684610606516    0.050134684610606516     -0.047840934156545764    0.03865528504078815      0.040949035494849025
0.03351996032387798       -5.925180135063849E-4    -0.014799621669450145    0.001156990668267509     -0.04095593836229319     -0.03858586630826759     0.04784179165440774      -0.0502118637084332      0.0502118637084332       -0.04784179165440774     0.03858586630826759      0.04095593836229319
0.033944573695425584      -6.249478876798501E-4    -0.014801313599019658    0.0011719031943580773    -0.040966223794986385    -0.03846643224426693     0.04784165779913161      -0.050341449349850936    0.050341449349850936     -0.04784165779913161     0.03846643224426693      0.040966223794986385
0.0340268142970897        -6.311383576585308E-4    -0.014801615302348773    0.0011747204036011397    -0.040968241007958844    -0.038443687577324664    0.04784145080613384      -0.05036600423676789     0.05036600423676789      -0.04784145080613384     0.038443687577324664     0.040968241007958844
0.03531349106164886       -7.238531330436152E-4    -0.014803711638902263    0.0012185129026609366    -0.04098478957215029     -0.03808937703997577     0.04783748026126334      -0.05073289279343772     0.05073289279343772      -0.04783748026126334     0.03808937703997577      0.04098478957215029
0.036095588398283925      -7.807128086933285E-4    -0.01480710629229147     0.0012455927067487056    -0.04100037366726626     -0.03787752243249289     0.0478422640864826       -0.05096511532125585     0.05096511532125585      -0.0478422640864826      0.03787752243249289      0.04100037366726626
0.037001422040397434      -8.465683034898871E-4    -0.014811038016770276    0.0012769568303884595    -0.041018423335736784    -0.037632150121777175    0.04784780476488491      -0.0512340779788444      0.0512340779788444       -0.04784780476488491     0.037632150121777175     0.041018423335736784
0.041120038101071524      -0.0011450573546500074   -0.014827261033595118    0.0014220268112577791    -0.04108379056505426     -0.036503561146454186    0.04787977563651648      -0.05246000505511644     0.05246000505511644      -0.04787977563651648     0.036503561146454186     0.04108379056505426
0.041990749698576926      -0.001207583082867104    -0.014829318010136856    0.001452980669495973     -0.041091197518160885    -0.03626086518669243     0.04788471054266027      -0.052715042874128634    0.052715042874128634     -0.04788471054266027     0.03626086518669243      0.041091197518160885
0.042432651610659636      -0.001239316022835583    -0.01483036196300197     0.001468690313402157     -0.041094956681068454    -0.03613769258972607     0.04788721509694338      -0.052844479188285665    0.052844479188285665     -0.04788721509694338     0.03613769258972607      0.041094956681068454
0.049210020401875255      -0.0017277678219264128   -0.014843992874172537    0.0017075811339473048    -0.04115718973058123     -0.034246118442875534    0.04790676751445402      -0.05481783880215964     0.05481783880215964      -0.04790676751445402     0.034246118442875534     0.04115718973058123
0.04976423499385699       -0.001768028626860232    -0.014845426380239297    0.001727094775641952     -0.04116395729187056     -0.034091842784429595    0.047908600989565245     -0.05498071549700614     0.05498071549700614      -0.047908600989565245    0.034091842784429595     0.04116395729187056
0.04982153923539956       -0.0017721534760645249   -0.014845484258335909    0.0017291311746667354    -0.04116423502846985     -0.03407562112421171     0.04790867052154563      -0.0549972844258037      0.0549972844258037       -0.04790867052154563     0.03407562112421171      0.04116423502846985
0.05016201993066166       -0.0017966618106506403   -0.014845828148666619    0.0017412307075656073    -0.04116588523703872     -0.03397923799443612     0.047909083654961014     -0.055095730897563554    0.055095730897563554     -0.047909083654961014    0.03397923799443612      0.04116588523703872
0.05163599028869903       -0.001901332363786957    -0.014849698431369004    0.0017933837129382353    -0.04117822516992801     -0.033572895714780136    0.04791996541828607      -0.055525294873433856    0.055525294873433856     -0.04791996541828607     0.033572895714780136     0.04117822516992801
0.053580107510556654      -0.0020398752571262704   -0.014854001858344713    0.001861693499859637     -0.04119498208984816     -0.03303548106134303     0.047929029060220174     -0.05608853008872522     0.05608853008872522      -0.047929029060220174    0.03303548106134303      0.04119498208984816
0.05840843188664244       -0.0023828465985078757   -0.01486274083702796     0.0020343251493529033    -0.04121661511068804     -0.031685228716656494    0.047959829911479776     -0.05749121630551123     0.05749121630551123      -0.047959829911479776    0.031685228716656494     0.04121661511068804
0.05962683174134638       -0.0024685155597889115   -0.014863140344310537    0.0020782450136093062    -0.04121347209807223     -0.031339409858916534    0.047965369967791036     -0.05783943220694664     0.05783943220694664      -0.047965369967791036    0.031339409858916534     0.04121347209807223
0.06083932896673841       -0.0025537694913733916   -0.014863537916150176    0.002121952104795247     -0.04121034431201634     -0.030995266346522728    0.04797088318488476      -0.05818596115037828     0.05818596115037828      -0.04797088318488476     0.030995266346522728     0.04121034431201634
0.06501054879967451       -0.0028478040876347118   -0.014863230505094398    0.0022712822266344433    -0.04120017078401486     -0.02980895443347598     0.04797921224655158      -0.059370428597090366    0.059370428597090366     -0.04797921224655158     0.02980895443347598      0.04120017078401486
0.06705262877942787       -0.0029897443957393414   -0.014866574174140985    0.00234404340978638      -0.041203037674756124    -0.029244060091798727    0.04799640737008981      -0.059955384953047135    0.059955384953047135     -0.04799640737008981     0.029244060091798727     0.041203037674756124
0.06989776045249751       -0.003185247182826729    -0.014867103981156222    0.002446307426213834     -0.04118657660426679     -0.028445587872959848    0.04801604728267057      -0.06075703601397744     0.06075703601397744      -0.04801604728267057     0.028445587872959848     0.04118657660426679
0.07004266764477778       -0.003195289247512743    -0.014867204662611181    0.002451509672456729     -0.04118615379303213     -0.02840499680298112     0.048017074182635        -0.06079823117268592     0.06079823117268592      -0.048017074182635       0.02840499680298112      0.04118615379303213
0.0701587929807159        -0.003203357469268399    -0.014867238711302928    0.0024556499446676434    -0.04118583129377502     -0.028372401416701387    0.048017600974042576     -0.06083103085111612     0.06083103085111612      -0.048017600974042576    0.028372401416701387     0.04118583129377502
0.07416162644937248       -0.003480947630973494    -0.014866566948118571    0.002598856579372471     -0.04116616978881282     -0.02724237926491881     0.04803323189989863      -0.06195702242379255     0.06195702242379255      -0.04803323189989863     0.02724237926491881      0.04116616978881282
0.07451111686475256       -0.00350480086359299     -0.014865806612630907    0.0026115112063139576    -0.04116097673982288     -0.02714177328545088     0.048033862935962596     -0.0620530663903345      0.0620530663903345       -0.048033862935962596    0.02714177328545088      0.04116097673982288
0.07510746633323409       -0.003545502588070135    -0.014864509221789895    0.0026331043021995213    -0.04115211563271188     -0.026970105280431297    0.04803493969802752      -0.06221695005030801     0.06221695005030801      -0.04803493969802752     0.026970105280431297     0.04115211563271188
0.07793037726878768       -0.0037395529735620185   -0.014863715901245324    0.002737298171387007     -0.041121060965311984    -0.02616284907106388     0.048061234442159984     -0.063019446336408       0.063019446336408        -0.048061234442159984    0.02616284907106388      0.041121060965311984
0.07850158188825135       -0.003778818284842527    -0.014863555376039209    0.0027583813797341424    -0.041114777178866115    -0.025999504039495972    0.048066555077369164     -0.06318182821673923     0.06318182821673923      -0.048066555077369164    0.025999504039495972     0.041114777178866115
0.08131039479017219       -0.003968938660782712    -0.014860863743616653    0.002860518200426492     -0.04107839575070942     -0.02520264110757853     0.04808678671099052      -0.06396254135412133     0.06396254135412133      -0.04808678671099052     0.02520264110757853      0.04107839575070942
0.0817082398740449        -0.003996319320101043    -0.014860411033194711    0.0028750894003568435    -0.04107351413835886     -0.02508823685795464     0.048088952060809445     -0.06407422934121358     0.06407422934121358      -0.048088952060809445    0.02508823685795464      0.04107351413835886
0.08204910339325293       -0.004019554484343695    -0.014859879193446614    0.002887543611201054     -0.041068572104223024    -0.024990354166848205    0.04809070305645669      -0.06416892099383142     0.06416892099383142      -0.04809070305645669     0.024990354166848205     0.041068572104223024
0.08265781399967478       -0.004061473115320317    -0.014858411039446807    0.002909810570148165     -0.041058937068388396    -0.02481304460710709     0.048091529168292464     -0.06433742162957369     0.06433742162957369      -0.048091529168292464    0.02481304460710709      0.041058937068388396
0.08268708853383656       -0.004063489095297658    -0.014858340431962776    0.0029108814482362083    -0.041058473693538815    -0.024804517312348142    0.04809156889823786      -0.06434552527942845     0.06434552527942845      -0.04809156889823786     0.024804517312348142     0.041058473693538815
0.08406868224996453       -0.004157965787542361    -0.014857045376846062    0.002961917330457215     -0.04103939838379405     -0.024407535233624576    0.04810287387728235      -0.06473473702745175     0.06473473702745175      -0.04810287387728235     0.024407535233624576     0.04103939838379405
0.08421317232500816       -0.004167846365452463    -0.014856909937165921    0.0029672547739950286    -0.04103740344642258     -0.02436601798461269     0.04810405617657297      -0.06477544163838278     0.06477544163838278      -0.04810405617657297     0.02436601798461269      0.04103740344642258
0.08752332537653112       -0.004392078055640937    -0.014855472227620906    0.0030883017414134483    -0.04099736582849081     -0.02342905360592702     0.04813546753723466      -0.06570377975979837     0.06570377975979837      -0.04813546753723466     0.02342905360592702      0.04099736582849081
0.08867973592872361       -0.004470230325985464    -0.014856428784602383    0.003131666466435764     -0.04098308114003503     -0.023102159836093136    0.0481554915675793       -0.06603641287152111     0.06603641287152111      -0.0481554915675793      0.023102159836093136     0.04098308114003503
0.08917619797304098       -0.0045037821089830565   -0.014856839446917448    0.0031502835051639404    -0.040976948538062705    -0.022961820102130437    0.048164088143442016     -0.06617921657937419     0.06617921657937419      -0.048164088143442016    0.022961820102130437     0.040976948538062705
0.089205652209948         -0.004505722140450269    -0.01485678345413876     0.0031513697682054114    -0.040976315570495185    -0.02295342700869406     0.04816438515433741      -0.06618727371613845     0.06618727371613845      -0.04816438515433741     0.02295342700869406      0.040976315570495185
0.08959108934255544       -0.004530983394708096    -0.014855621270950334    0.0031653243105017903    -0.040967533360260044    -0.022843599781427623    0.048166194265442        -0.06629012784427432     0.06629012784427432      -0.048166194265442       0.022843599781427623     0.040967533360260044
0.09212724937030053       -0.004697201379119727    -0.014847974154733334    0.0032571446085050944    -0.04090974678841909     -0.022120941271940142    0.04817809813998096      -0.0669669036564598      0.0669669036564598       -0.04817809813998096     0.022120941271940142     0.04090974678841909
0.09335853766406707       -0.00478052702080554     -0.014845838836502059    0.0033022129165355667    -0.040889718884975       -0.021767610801752803    0.0481853141340374       -0.0673074222172595      0.0673074222172595       -0.0481853141340374      0.021767610801752803     0.040889718884975
0.09565683915657378       -0.0049345396031217235   -0.014840755362854048    0.0033869495051122933    -0.04084354727435643     -0.021105388861869502    0.048200984902767904     -0.06793914331525475     0.06793914331525475      -0.048200984902767904    0.021105388861869502     0.04084354727435643
0.09706755253821761       -0.0050302915496954195   -0.014836116665396745    0.003437990368415333     -0.04081697162191975     -0.020695805423138033    0.04819972837046076      -0.06832089456924238     0.06832089456924238      -0.04819972837046076     0.020695805423138033     0.04081697162191975
0.09739273974500647       -0.005051777287458952    -0.014835480189069276    0.0034502015921131918    -0.040809188773672976    -0.020602079623837127    0.04820369236074271      -0.06841080151057848     0.06841080151057848      -0.04820369236074271     0.020602079623837127     0.040809188773672976
0.10106054962414353       -0.0052899996011323315   -0.0148255559496599      0.0035891108660409525    -0.040700223587080565    -0.0195402251825512      0.048253112110878876     -0.06941311051540816     0.06941311051540816      -0.048253112110878876    0.0195402251825512       0.040700223587080565
0.10218071862667129       -0.005363682706832446    -0.014823773978294971    0.003630465000541261     -0.04067682734638478     -0.019222096519054963    0.0482658165233851       -0.06972054735071484     0.06972054735071484      -0.0482658165233851      0.019222096519054963     0.04067682734638478
0.10535593849243444       -0.0055701717239417595   -0.014814223499115894    0.00374756955863285      -0.04059273571069981     -0.01831204881493273     0.048292605283995586     -0.07057329217976258     0.07057329217976258      -0.048292605283995586    0.01831204881493273      0.04059273571069981
0.10701788268479857       -0.0056787173373701785   -0.014809039184974535    0.0038085879415021805    -0.04055020046365525     -0.017835331114174496    0.048304034646192005     -0.07101890399567266     0.07101890399567266      -0.048304034646192005    0.017835331114174496     0.04055020046365525
0.10990610517212687       -0.005866163150718057    -0.014801644418476513    0.003917613099098397     -0.040466807160472074    -0.0170021545575998      0.04834305935038704      -0.07180771195325923     0.07180771195325923      -0.04834305935038704     0.0170021545575998       0.040466807160472074
0.11081815793801963       -0.005924350280332162    -0.014796717370755646    0.003952360701742836     -0.04042940986595992     -0.01673200874463123     0.04835089435857398      -0.0720482954799026      0.0720482954799026       -0.04835089435857398     0.01673200874463123      0.04042940986595992
0.11355470789407035       -0.006099093222088859    -0.014788827945495905    0.004054282221732728     -0.040347541393734525    -0.015951168505379042    0.04838542627924093      -0.07278179916759633     0.07278179916759633      -0.04838542627924093     0.015951168505379042     0.040347541393734525
0.11763149171758243       -0.006362567609870838    -0.014780784982658422    0.004206253519819016     -0.04024247608844089     -0.014792205648957488    0.048442233807509685     -0.073892504246993       0.073892504246993        -0.048442233807509685    0.014792205648957488     0.04024247608844089
0.11853530816501694       -0.006419983387084905    -0.014776433373838629    0.004240261696032944     -0.04020822011155392     -0.014528286563214261    0.048450380131477885     -0.07413031367981746     0.07413031367981746      -0.048450380131477885    0.014528286563214261     0.04020822011155392
0.11985107360570747       -0.006502545474605916    -0.014771325170065928    0.00428974742072552      -0.040160076776507556    -0.014149894878083838    0.04846787424388807      -0.07447805614231168     0.07447805614231168      -0.04846787424388807     0.014149894878083838     0.040160076776507556
0.12407329991222493       -0.006767483135279889    -0.01475493319648071     0.004448544666900653     -0.04000558719239931     -0.012935654651279707    0.048524011986485004     -0.07559394452760451     0.07559394452760451      -0.048524011986485004    0.012935654651279707     0.04000558719239931
0.12581773614754221       -0.006876470055822427    -0.01474927091406323     0.004514473680804302     -0.039942858130617334    -0.01243697790732759     0.04855276735376208      -0.07605864757705173     0.07605864757705173      -0.04855276735376208     0.01243697790732759      0.039942858130617334
0.1290614520232143        -0.0070791272795415515   -0.014738742105386657    0.004637066289658113     -0.03982621571661063     -0.011509706598444384    0.04860623691570938      -0.07692274603387553     0.07692274603387553      -0.04860623691570938     0.011509706598444384     0.03982621571661063
0.13188355388966033       -0.007254651198496848    -0.014726610102917185    0.004744376849344439     -0.0397116253083675      -0.010693020514380074    0.04864803530913567      -0.07766664010312299     0.07766664010312299      -0.04864803530913567     0.010693020514380074     0.0397116253083675
0.13305589911923535       -0.007328014273304814    -0.0147205121143389      0.004789132786474776     -0.03966103374372723     -0.010348976650507942    0.04866203894230622      -0.07797409603552541     0.07797409603552541      -0.04866203894230622     0.010348976650507942     0.03966103374372723
0.1362813775510446        -0.007525974410090565    -0.014706540504907177    0.004912770986813839     -0.03952048638764732     -0.009416588747285017    0.048718756641795806     -0.078822654282158       0.078822654282158        -0.048718756641795806    0.009416588747285017     0.03952048638764732
0.13652102620470566       -0.007540639740017712    -0.014705612008827564    0.004921861297476484     -0.03951067031661219     -0.009348111356541308    0.04872300173635325      -0.07888556069642404     0.07888556069642404      -0.04872300173635325     0.009348111356541308     0.03951067031661219
0.14026730788457334       -0.007769893925242514    -0.014691097394204277    0.005063964596533356     -0.039357221646964445    -0.00827764594599435     0.048789362718261266     -0.07986893841923128     0.07986893841923128      -0.048789362718261266    0.00827764594599435      0.039357221646964445
0.14051588702763845       -0.0077852064938103505   -0.014689818666406115    0.00507345969605018      -0.03934603020263834     -0.008205204227396897    0.048792881795798396     -0.07993370777103975     0.07993370777103975      -0.048792881795798396    0.008205204227396897     0.03934603020263834
0.14079227164166017       -0.0078022318898315806   -0.014688396903161715    0.005084016894786548     -0.039333586910002126    -0.008124659350675769    0.04879679450896821      -0.08000572206829448     0.08000572206829448      -0.04879679450896821     0.008124659350675769     0.039333586910002126
0.14706572146713304       -0.008181124494771291    -0.014661582564861145    0.005324621364173649     -0.03904851122743143     -0.006324013248346224    0.04892098416173548      -0.0816454821408206      0.0816454821408206       -0.04892098416173548     0.006324013248346224     0.03904851122743143
0.14754992682847323       -0.008210368362813613    -0.01465960230963847     0.005343188694526304     -0.03902678887643743     -0.0061853154251829395   0.048930824981393437     -0.08177229843264784     0.08177229843264784      -0.048930824981393437    0.0061853154251829395    0.03902678887643743
0.14760795959229495       -0.008213873285771582    -0.014659364972977583    0.005345414017877067     -0.03902418541896766     -0.006168692275881288    0.04893200441889788      -0.08178749756198415     0.08178749756198415      -0.04893200441889788     0.006168692275881288     0.03902418541896766
0.14852864416408504       -0.008269313995214867    -0.014656020616347607    0.005380350376444737     -0.03898528833369362     -0.0059080323528341114   0.04895083536439208      -0.08202809134525149     0.08202809134525149      -0.04895083536439208     0.0059080323528341114    0.03898528833369362
0.1505125837602754        -0.008387402864037368    -0.014647880276854507    0.005456377840877377     -0.038892935195128764    -0.005343323738979246    0.048994346465998324     -0.08254395792214776     0.08254395792214776      -0.048994346465998324    0.005343323738979246     0.038892935195128764
0.15087488687379755       -0.00840892548492811     -0.014646270712945603    0.005470316960634929     -0.03887539526615333     -0.005239693326440851    0.04900222901152034      -0.08263793095123274     0.08263793095123274      -0.04900222901152034     0.005239693326440851     0.03887539526615333
0.15162273158959017       -0.00845335120941796     -0.01464294834606804     0.005499089269412921     -0.03883919037938837     -0.005025785541716487    0.049018499697019914     -0.08283190453469172     0.08283190453469172      -0.049018499697019914    0.005025785541716487     0.03883919037938837
0.15460310501783067       -0.008631244032650847    -0.014629748440555479    0.005613522171388229     -0.03869764470141522     -0.004172668570811804    0.049080845941917695     -0.08360582207252101     0.08360582207252101      -0.049080845941917695    0.004172668570811804     0.03869764470141522
0.1554602615447233        -0.008681873044177283    -0.01462542944073098     0.005646539968651164     -0.038653874535942864    -0.0039263823592336905   0.04909870210844307      -0.08382619428515214     0.08382619428515214      -0.04909870210844307     0.0039263823592336905    0.038653874535942864
0.1556084291757227        -0.008690678440857046    -0.014624869770172353    0.00565227397371806      -0.03864687029735893     -0.0038841565339307006   0.04910234832367524      -0.08386506208710337     0.08386506208710337      -0.04910234832367524     0.0038841565339307006    0.03864687029735893
0.15712831648033435       -0.008781290918619835    -0.014618363216141444    0.005711223152608164     -0.038572778875231355    -0.0034476152007519804   0.04913740042161735      -0.08426256409609663     0.08426256409609663      -0.04913740042161735     0.0034476152007519804    0.038572778875231355
0.15912899126808844       -0.008898830338284373    -0.014609754522020287    0.005787956804233097     -0.03847509702569722     -0.0028797756725597026   0.04918343010642454      -0.08477875145956197     0.08477875145956197      -0.04918343010642454     0.0028797756725597026    0.03847509702569722
0.159977261935113         -0.008948666144948606    -0.014606104502162456    0.005820491280223661     -0.03843368067548994     -0.002639016095695492    0.04920294633748484      -0.0849976109172792      0.0849976109172792       -0.04920294633748484     0.002639016095695492     0.03843368067548994
0.1649204064633458        -0.009237045330029729    -0.014583374169534999    0.006011585389109214     -0.038177871612227604    -0.0012296902921086514   0.049322373404982425     -0.08627055472510128     0.08627055472510128      -0.049322373404982425    0.0012296902921086514    0.038177871612227604
0.1656293717557802        -0.009278155831040464    -0.014580718609294538    0.006038990715901309     -0.038142504626359305    -0.001029881302197422    0.04934180702940795      -0.08645443035356974     0.08645443035356974      -0.04934180702940795     0.001029881302197422     0.038142504626359305
0.16584814553568247       -0.009290841783083207    -0.014579899151758656    0.006047447500733716     -0.03813159101850752     -9.682238861746593E-4    0.04934780389204445      -0.0865111710243772      0.0865111710243772       -0.04934780389204445     9.682238861746593E-4     0.03813159101850752