% Model:              Cylinder_slice_potential_2.mph
% Version:            COMSOL 6.2.0.339
% Date:               May 15 2024, 11:20
% Dimension:          1
% Nodes:              810
% Expressions:        11
% Description:        Line graph
% Arc length (m)          Magnetic scalar potential Magnetic scalar potential Magnetic scalar potential Magnetic scalar potential Magnetic scalar potential Magnetic scalar potential Magnetic scalar potential Magnetic scalar potential Magnetic scalar potential Magnetic scalar potential Magnetic scalar potential
0                         0.015719524063368833     -0.004847286294578746    -6.719367617497954E-7    0.016894501495954454     -0.04598359475752086     0.045978219263426844     0.016899876990048412     -0.016899876990048412    -0.045978219263426844    0.04598359475752086      -0.016894501495954454
2.027326435990391E-4      0.015721781070575383     -0.004835439058801678    -7.309703022737119E-6    0.016908006152654805     -0.0459791181296467      0.045920640505464794     0.016966483776836662     -0.016966483776836662    -0.045920640505464794    0.0459791181296467       -0.016908006152654805
3.274430093433945E-4      0.01572316946165646      -0.004828151267942798    -1.1392904639594035E-5   0.016916313500926178     -0.04597636434569965     0.04588522110858288      0.01700745673804289      -0.01700745673804289     -0.04588522110858288     0.04597636434569965      -0.016916313500926178
0.0019806228290611917     0.015737260278865597     -0.004732412563802982    -6.308681736670442E-5    0.017024935596855462     -0.045924105518606914    0.045419410979673266     0.017529630135789058     -0.017529630135789058    -0.045419410979673266    0.045924105518606914     -0.017024935596855462
0.007517463845035871      0.015803924660924618     -0.004420948321220839    -2.481905889338365E-4    0.017352242002451404     -0.04586345664124705     0.04387793192977635      0.019337766713922053     -0.019337766713922053    -0.04387793192977635     0.04586345664124705      -0.017352242002451404
0.010754316609122171      0.015843039090272043     -0.004237539967063306    -3.556472097929885E-4    0.01755086944018224      -0.04582128692090592     0.042976109242562        0.020396047118526106     -0.020396047118526106    -0.042976109242562       0.04582128692090592      -0.01755086944018224
0.01078432895297111       0.015843326181613722     -0.004235846913195943    -3.56672352072648E-4     0.01755242221534905      -0.045820882511105825    0.042967503694524616     0.020405801031930192     -0.020405801031930192    -0.042967503694524616    0.045820882511105825     -0.01755242221534905
0.010836111155640612      0.015843898494458886     -0.0042329369453812495   -3.584570286151828E-4    0.017555158038313316     -0.0458204359395222      0.04295277971060072      0.020422814267234735     -0.020422814267234735    -0.04295277971060072     0.0458204359395222       -0.017555158038313316
0.011349973391422111      0.01585094832323332      -0.004204544763146749    -3.758512616569514E-4    0.01758485731039861      -0.04581893598253464     0.04281212588927901      0.020591667403654177     -0.020591667403654177    -0.04281212588927901     0.04581893598253464      -0.01758485731039861
0.01273515811877045       0.015869579098619024     -0.004127930654378043    -4.2263711709389476E-4   0.017664817765728365     -0.04581349862874773     0.04243240169199654      0.021045914702479476     -0.021045914702479476    -0.04243240169199654     0.04581349862874773      -0.017664817765728365
0.012821130976716347      0.01587067514778697      -0.004123236934323268    -4.2553394566104775E-4   0.01766950370995997      -0.045813196881187894    0.04240892531589949      0.021073775275248306     -0.021073775275248306    -0.04240892531589949     0.045813196881187894     -0.01766950370995997
0.013217373408492172      0.01587506639229069      -0.0041016378535049984   -4.390078373175741E-4    0.017689187874796116     -0.04581107769436664     0.042299014995826015     0.02120125057333666      -0.02120125057333666     -0.042299014995826015    0.04581107769436664      -0.017689187874796116
0.014236446066020762      0.015886359976337732     -0.0040460884450506775   -4.736605485785353E-4    0.017739812423209312     -0.04580562748214159     0.04201634309351329      0.02152909681183755      -0.02152909681183755     -0.04201634309351329     0.04580562748214159      -0.017739812423209312
0.019131013937385873      0.015942456342958152     -0.0037735478920214154   -6.361124335557411E-4    0.018019819275629123     -0.045750006096203485    0.040661106627757536     0.023108718744075007     -0.023108718744075007    -0.040661106627757536    0.045750006096203485     -0.018019819275629123
0.02049719020633814       0.015958462584016547     -0.0036994247057681486   -6.827755017754997E-4    0.018087549043626673     -0.04574630129243951     0.04028409727823548      0.02354975305783063      -0.02354975305783063     -0.04028409727823548     0.04574630129243951      -0.018087549043626673
0.022390740875939622      0.015980647589833672     -0.0035966883223653634   -7.474515513316426E-4    0.01818142400724471      -0.04574116635208998     0.03976155394143681      0.024161036417897803     -0.024161036417897803    -0.03976155394143681     0.04574116635208998      -0.01818142400724471
0.02539494706584812       0.01601083842942703      -0.0034339494578117464   -8.509928357981952E-4    0.01831585714222607      -0.04572749657548206     0.03891955388909646      0.025123799828611577     -0.025123799828611577    -0.03891955388909646     0.04572749657548206      -0.01831585714222607
0.02552686975600129       0.016012214152229687     -0.003426648483357099    -8.554322345496036E-4    0.01832275391618969      -0.045726102692729066    0.03888264481633219      0.02516621179258647      -0.02516621179258647     -0.03888264481633219     0.045726102692729066     -0.01832275391618969
0.025640862414180052      0.01601343198072884      -0.0034205023957179313   -8.593783459594461E-4    0.018327843390466128     -0.04572588453244923     0.03885085776477362      0.025202870158141644     -0.025202870158141644    -0.03885085776477362     0.04572588453244923      -0.018327843390466128
0.025704031495606         0.016014106840924705     -0.003417096538562458    -8.615650853244786E-4    0.01833066372486415      -0.04572576363883468     0.038833242956238814     0.025223184407459926     -0.025223184407459926    -0.038833242956238814    0.04572576363883468      -0.01833066372486415
0.02616791022075894       0.016019575653472645     -0.0033924014693353134   -8.773816820287247E-4    0.018352420170824484     -0.045725882443066114    0.03870682898683627      0.025371473627054227     -0.025371473627054227    -0.03870682898683627     0.045725882443066114     -0.018352420170824484
0.026469576306807144      0.016023132090073885     -0.003376341959652074    -8.876674109566888E-4    0.01836656865736481      -0.045725959702930724    0.03862462041527717      0.025467907945018273     -0.025467907945018273    -0.03862462041527717     0.045725959702930724     -0.01836656865736481
0.03024350923806432       0.01606824495213493      -0.0031749745290798005   -0.0010176076169203568   0.018541135849349053     -0.045731843959190666    0.03759098302382777      0.026681996784711864     -0.026681996784711864    -0.03759098302382777     0.045731843959190666     -0.018541135849349053
0.03084196006508929       0.016075385385030803     -0.0031429706317519773   -0.00103761104725608     0.018571414685781377     -0.045730126854341836    0.037429238476293154     0.02687230306382997      -0.02687230306382997     -0.037429238476293154    0.045730126854341836     -0.018571414685781377
0.032786996101544216      0.016098592637274742     -0.0030389541766004803   -0.0011026245639874613   0.018669824488798222     -0.045724546060300755    0.03690354954840101      0.027490821000697867     -0.027490821000697867    -0.03690354954840101     0.045724546060300755     -0.018669824488798222
0.03364976278607108       0.01610929624344424      -0.002993739351801327    -0.0011324144560931686   0.01870771660711185      -0.045729468366665124    0.03667015271791972      0.027767032255857155     -0.027767032255857155    -0.03667015271791972     0.045729468366665124     -0.01870771660711185
0.034221484925456874      0.01611607175833152      -0.0029637292840949806   -0.0011520942592600013   0.018732578627338112     -0.04573170840598797     0.036514954331907906     0.027949332701418084     -0.027949332701418084    -0.036514954331907906    0.04573170840598797      -0.018732578627338112
0.03577553138039052       0.016134488860216428     -0.0028821563728526943   -0.0012055876019842562   0.018800158193937763     -0.04573779724692795     0.036093096431053844     0.02844485900981178      -0.02844485900981178     -0.036093096431053844    0.04573779724692795      -0.018800158193937763
0.03977102776355117       0.01617926726905737      -0.0026717116214819694   -0.0013432043960580858   0.01897058208943651      -0.04574648698679297     0.035000851818328245     0.029716217257901162     -0.029716217257901162    -0.035000851818328245    0.04574648698679297      -0.01897058208943651
0.04097293735568899       0.016194928523851366     -0.002610127804967512    -0.0013843208267438935   0.019022190325824643     -0.045757523769580824    0.034682957155629635     0.030096756939775756     -0.030096756939775756    -0.034682957155629635    0.045757523769580824     -0.019022190325824643
0.04171981445618903       0.016204660564137295     -0.002571859084410725    -0.0014098709352831768   0.019054260133909734     -0.04576438212263946     0.03448541464037401      0.030333227616175115     -0.030333227616175115    -0.03448541464037401     0.04576438212263946      -0.019054260133909734
0.04448764109228105       0.016235469779952036     -0.002428830906799436    -0.0015064686918834307   0.019158572071972062     -0.04578330704783608     0.0337315575127686       0.03121032160703948      -0.03121032160703948     -0.0337315575127686      0.04578330704783608      -0.019158572071972062
0.04579482202203223       0.016248145724287358     -0.0023609374217189514   -0.0015529472305599026   0.019201690261178267     -0.04579089263597116     0.0333673147914919       0.03162526810565745      -0.03162526810565745     -0.0333673147914919      0.04579089263597116      -0.019201690261178267
0.04821043383926846       0.016273989114445376     -0.0022372056588366423   -0.0016396655374007264   0.019277699102777948     -0.045818257355003555    0.03270093305579773      0.03239502340198372      -0.03239502340198372     -0.03270093305579773     0.045818257355003555     -0.019277699102777948
0.04973775004498005       0.016290329086090335     -0.0021589739142893615   -0.0016944948251301588   0.019325757128791983     -0.04583555921556937     0.03227960061452809      0.032881715729833214     -0.032881715729833214    -0.03227960061452809     0.04583555921556937      -0.019325757128791983
0.05218089229471647       0.016323149901772097     -0.0020366112836600024   -0.0017809491052264113   0.019412669531658575     -0.04587993007542983     0.03163233723361852      0.033660262373469814     -0.033660262373469814    -0.03163233723361852     0.04587993007542983      -0.019412669531658575
0.05645652419773266       0.016370817210981676     -0.001821476568228947    -0.0019313712081348595   0.019551719884737112     -0.04593154895918962     0.03048057929411073      0.03500268954981593      -0.03500268954981593     -0.03048057929411073     0.04593154895918962      -0.019551719884737112
0.057035069142554226      0.016377107931526073     -0.0017925059169306896   -0.001952565524930463    0.019566436012538265     -0.04594199571356605     0.030321471514122338     0.035186960211981914     -0.035186960211981914    -0.030321471514122338    0.04594199571356605      -0.019566436012538265
0.05742189759871645       0.01638131405196342      -0.0017731354731716903   -0.001966736532591736    0.019576275554044863     -0.04594898065380884     0.03021508839307494      0.0353101678147787       -0.0353101678147787      -0.03021508839307494     0.04594898065380884      -0.019576275554044863
0.05958293339124366       0.016410722973043152     -0.0016673799238581893   -0.0020447958110207673   0.0196401229304287       -0.04600276896174393     0.029644402473577768     0.035998489418594785     -0.035998489418594785    -0.029644402473577768    0.04600276896174393      -0.0196401229304287
0.059913227767067465      0.016414540194474973     -0.0016513782210865239   -0.0020568915884828023   0.019647379371759192     -0.046010781406140705    0.029555648698278272     0.03610251207962156      -0.03610251207962156     -0.029555648698278272    0.046010781406140705     -0.019647379371759192
0.06357482911280475       0.01645479278667757      -0.0014724623126288507   -0.0021891976983204834   0.01973540784218668      -0.0460837633045236      0.02857018171795972      0.03724898942875051      -0.03724898942875051     -0.02857018171795972     0.0460837633045236       -0.01973540784218668
0.07106683101339921       0.01653715360884539      -0.0011063825022824911   -0.002459909207512531    0.019915522880793207     -0.04623309155458836     0.026553817894488088     0.03959479654089343      -0.03959479654089343     -0.026553817894488088    0.04623309155458836      -0.019915522880793207
0.08286734113985007       0.016675351920568498     -5.541852460405547E-4    -0.002892870674615532    0.020116665404553227     -0.046584742277720755    0.023441776880796485     0.043259630801477426     -0.043259630801477426    -0.023441776880796485    0.046584742277720755     -0.020116665404553227
0.08400497006275047       0.016689100010646774     -5.005668636429754E-4    -0.002934307397294185    0.020139269841187905     -0.04661713020139918     0.023142671023045687     0.04361372901954134      -0.04361372901954134     -0.023142671023045687    0.04661713020139918      -0.020139269841187905
0.0865126443761704        0.01671940491205521      -3.823759161741505E-4    -0.0030256463242517083   0.02018909677858116      -0.04668852286963967     0.022483352275625992     0.044394267372594776     -0.044394267372594776    -0.022483352275625992    0.04668852286963967      -0.02018909677858116
0.0870440495879743        0.016726154217229106     -3.57155761235885E-4     -0.0030451903395001235   0.020200079792750087     -0.04670453707616632     0.022343014360165322     0.044561602508751026     -0.044561602508751026    -0.022343014360165322    0.04670453707616632      -0.020200079792750087
0.08742778353297843       0.01673134163341057      -3.39682632317998E-4     -0.003059489875187236    0.020205675869118228     -0.04671969066452405     0.022243771663026147     0.04468159487061607      -0.04468159487061607     -0.022243771663026147    0.04671969066452405      -0.020205675869118228
0.08971128487987032       0.01675997424506472      -2.3573105164225084E-4   -0.003144261583313662    0.02023570900194806      -0.0468041879783108      0.021650095311801492     0.045389801668457304     -0.045389801668457304    -0.021650095311801492    0.0468041879783108       -0.02023570900194806
0.0912448567389102        0.01677920356040687      -1.6591842856496174E-4   -0.003201193236190672    0.02025587889035619      -0.04686093535127128     0.021251389461745887     0.045865424779881515     -0.045865424779881515    -0.021251389461745887    0.04686093535127128      -0.02025587889035619
0.09415919221600343       0.016817566014951414     -2.8846102311890095E-5   -0.003310349733673103    0.02030719478827478      -0.04696306927153088     0.020480271402146047     0.04678999265765955      -0.04678999265765955     -0.020480271402146047    0.04696306927153088      -0.02030719478827478
0.09690490068962188       0.016853708771109616     1.002950520438331E-4     -0.003413190303142119    0.02035554148578228      -0.04705929359865618     0.01975377117351921      0.04766106391091918      -0.04766106391091918     -0.01975377117351921     0.04705929359865618      -0.02035554148578228
0.09934629794258076       0.016874366258236292     2.053691304710872E-4     -0.0035042268203573437   0.020347932626456504     -0.04714953240648868     0.019115717843629906     0.048381747189315205     -0.048381747189315205    -0.019115717843629906    0.04714953240648868      -0.020347932626456504
0.09966228553004836       0.016878795692220804     2.1927564903053684E-4    -0.003516025691003879    0.02035131556751773      -0.04716386720136549     0.019035661673334432     0.048479521095548705     -0.048479521095548705    -0.019035661673334432    0.04716386720136549      -0.02035131556751773
0.10232883998446526       0.01691617477731904      3.3662990749152156E-4    -0.0036155939409207743   0.02037986351342959      -0.047284835595846605    0.01836008406848038      0.049304615040795724     -0.049304615040795724    -0.01836008406848038     0.047284835595846605     -0.02037986351342959
0.1045839597925244        0.016946761252399384     4.3355588913435E-4       -0.003699736489587769    0.02039524421385077      -0.04739180079574677     0.017793908879044598     0.04999313613055287      -0.04999313613055287     -0.017793908879044598    0.04739180079574677      -0.02039524421385077
0.10806360390724215       0.016987453646946142     5.854803706972703E-4     -0.0038330918109144604   0.02039898116232628      -0.047550833425458294    0.01688609893814259      0.05106371564964191      -0.05106371564964191     -0.01688609893814259     0.047550833425458294     -0.02039898116232628
0.10817027841282074       0.01698851761320816      5.900814707244846E-4     -0.003837171958471254    0.02039859180470479      -0.04755547864812786     0.016858102980357812     0.05109596747247477      -0.05109596747247477     -0.016858102980357812    0.04755547864812786      -0.02039859180470479
0.11027559387833344       0.017009515925917124     6.808882384064506E-4     -0.0039176972696156505   0.02039090748859103      -0.047647156215077466    0.016305578058152255     0.05173248564551616      -0.05173248564551616     -0.016305578058152255    0.047647156215077466     -0.02039090748859103
0.11281554492132584       0.017041126370084078     7.897288166654211E-4     -0.0040143800550205815   0.020393918970082123     -0.04777058651025419     0.015655546070089527     0.05250895941024672      -0.05250895941024672     -0.015655546070089527    0.04777058651025419      -0.020393918970082123
0.11622976076242554       0.017083810314616997     9.360642264398525E-4     -0.004145748309582364    0.020392820070224128     -0.04794242118824388     0.014776434711584938     0.053558806546882984     -0.053558806546882984    -0.014776434711584938    0.04794242118824388      -0.020392820070224128
0.11848444642199803       0.017111998010448604     0.0010327014530423166    -0.004232501500788963    0.020392094376868328     -0.04805589766492609     0.014195885658614356     0.054252106383179975     -0.054252106383179975    -0.014195885658614356    0.04805589766492609      -0.020392094376868328
0.12189232639554487       0.01715840020152394      0.0011758047634493989    -0.004362236391482674    0.020395269127465407     -0.04823833167863035     0.013340440546768938     0.05529316025932673      -0.05529316025932673     -0.013340440546768938    0.04823833167863035      -0.020395269127465407
0.12433132997297594       0.0171890846310788       0.001276548811670596     -0.0044565495879766385   0.02038161734526285      -0.04837472117905234     0.012722324475239204     0.05603401404907591      -0.05603401404907591     -0.012722324475239204    0.04837472117905234      -0.02038161734526285
0.12968179593757942       0.017260353218397063     0.0014985942830504251    -0.004666150123739953    0.020351888790985595     -0.04868952408260264     0.011360323092682974     0.057681089780905165     -0.057681089780905165    -0.011360323092682974    0.04868952408260264      -0.020351888790985595
0.1301370138051159        0.01726674753590199      0.001517310849923372     -0.004683448094553783    0.020351635243358958     -0.04871535490024896     0.011247770143818657     0.05781921999978917      -0.05781921999978917     -0.011247770143818657    0.04871535490024896      -0.020351635243358958
0.13383739440107512       0.017318725742617978     0.0016694543087345183    -0.004824060052285972    0.020349574202295617     -0.04892532876817625     0.010332848349888436     0.05894205462058334      -0.05894205462058334     -0.010332848349888436    0.04892532876817625      -0.020349574202295617
0.13975987381721505       0.017398005616886196     0.0019070228128678984    -0.005056533206916158    0.020290946844711465     -0.0493010756228333      0.008848809967504005     0.06074321250004067      -0.06074321250004067     -0.008848809967504005    0.0493010756228333       -0.020290946844711465
0.1408791454531609        0.017413726230172805     0.0019521573802444723    -0.005100945332912953    0.020280143269427224     -0.04937476165126397     0.008567198987960321     0.061087705932730794     -0.061087705932730794    -0.008567198987960321    0.04937476165126397      -0.020280143269427224
0.14384116391345167       0.017457481296804814     0.0020704614570698195    -0.0052149965304422626   0.020266360843050057     -0.049563564344169184    0.00784359210063107      0.0619863330865881       -0.0619863330865881      -0.00784359210063107     0.049563564344169184     -0.020266360843050057
0.14578246240660533       0.017485729031638815     0.0021479577812536913    -0.005289999917461014    0.020255331737194664     -0.04968758438936057     0.007367585049672442     0.0625753310768827       -0.0625753310768827      -0.007367585049672442    0.04968758438936057      -0.020255331737194664
0.14611508955107164       0.017490434488923536     0.002161034521870666     -0.005302909560087491    0.02025233430310913      -0.049709403652585       0.007286127171885055     0.06267561078380898      -0.06267561078380898     -0.007286127171885055    0.049709403652585        -0.02025233430310913
0.14677867178344747       0.017498965484244997     0.002187042804840762     -0.005329171782926497    0.020242372251306304     -0.049753489685673655    0.007120115422261655     0.06287574651471822      -0.06287574651471822     -0.007120115422261655    0.049753489685673655     -0.020242372251306304
0.14840744176463966       0.017519904907290627     0.002250880425104314     -0.005393632701426998    0.020217920284186224     -0.049861699344976265    0.006712637733560263     0.06336698189560214      -0.06336698189560214     -0.006712637733560263    0.049861699344976265     -0.020217920284186224
0.1498895868946629        0.017543001403051622     0.0023087106009736075    -0.005451887463190608    0.020204584756261648     -0.04996742085594483     0.006352321150419929     0.06381968446178644      -0.06381968446178644     -0.006352321150419929    0.04996742085594483      -0.020204584756261648
0.15138748849009975       0.017566343434239122     0.002367155560879561     -0.005510761522700655    0.02019110746031432      -0.050074266276642146    0.00598817409503688      0.06427719964191948      -0.06427719964191948     -0.00598817409503688     0.050074266276642146     -0.02019110746031432
0.15175499640937046       0.017572121114499774     0.002381600557679583     -0.005525188408219977    0.02018829026915841      -0.05010019418884068     0.005898686923080837     0.06438979753491815      -0.06438979753491815     -0.005898686923080837    0.05010019418884068      -0.02018829026915841
0.15207649496874232       0.017576637020832855     0.0023940943071328004    -0.005537806368532691    0.020184331488933366     -0.05012221659439804     0.005819765646136485     0.06448678243719481      -0.06448678243719481     -0.005819765646136485    0.05012221659439804      -0.020184331488933366
0.15483348819063636       0.01761674798575779      0.0024992317737147175    -0.005645684287326313    0.020148454143354484     -0.050318537799676655    0.005153063501066101     0.06531392844196494      -0.06531392844196494     -0.005153063501066101    0.050318537799676655     -0.020148454143354484
0.15490700986442185       0.017617828242751328     0.0025020291393344895    -0.005648577602681051    0.02014743349278193      -0.050323879478223366    0.005135258656774912     0.06533605431423029      -0.06533605431423029     -0.005135258656774912    0.050323879478223366     -0.02014743349278193
0.1551884176614542        0.0176219629791512       0.002512736192860646     -0.005659651908503738    0.020143526902869392     -0.05034432501373538     0.005067109745705436     0.06542074217089924      -0.06542074217089924     -0.005067109745705436    0.05034432501373538      -0.020143526902869392
0.15689104989340236       0.01764628371621278      0.0025783514409885395    -0.005726613468542379    0.02012116788122168      -0.05046396698362943     0.004651059235290361     0.06593407562956065      -0.06593407562956065     -0.004651059235290361    0.05046396698362943      -0.02012116788122168
0.15991750959755446       0.017689828803155793     0.002695081561116473     -0.005845643413189004    0.020082328636905025     -0.05067698657571817     0.003911839270206103     0.06684747594241698      -0.06684747594241698     -0.003911839270206103    0.05067698657571817      -0.020082328636905025
0.16010685664751842       0.01769255315258023      0.002702384649889748     -0.005853090387898526    0.020079898703235628     -0.0506903139070853      0.0038655908038970578    0.06690462180642377      -0.06690462180642377     -0.0038655908038970578   0.0506903139070853       -0.020079898703235628
0.16017219979322883       0.01769362457133759      0.0027048888358553584    -0.0058556875637510285   0.02007916539523717      -0.050695332890113194    0.0038498323801049355    0.06692466590524532      -0.06692466590524532     -0.0038498323801049355   0.050695332890113194     -0.02007916539523717
0.16327384448432375       0.01774448163162401      0.002823755092159833     -0.005978967773284475    0.02004435744658964      -0.0509335690799064      0.003101826893630559     0.06787609963286538      -0.06787609963286538     -0.003101826893630559    0.0509335690799064       -0.02004435744658964
0.16418728028343857       0.01775891246513149      0.002858015857302403     -0.006014814986291011    0.020032612557006165     -0.051003037303519794    0.0028845174131916667    0.06815113244733419      -0.06815113244733419     -0.0028845174131916667   0.051003037303519794     -0.020032612557006165
0.1671027401957419        0.017801037277573827     0.0029670003063453623    -0.006129122852995746    0.019986584062200777     -0.05121756504809453     0.002184582224128521     0.06901956688616667      -0.06901956688616667     -0.002184582224128521    0.05121756504809453      -0.019986584062200777
0.17061696150569333       0.017858872391633036     0.0030975020629459542    -0.006268371935942752    0.01993676322833296      -0.05149872633819919     0.0013517508506571472    0.0700837387158749       -0.0700837387158749      -0.0013517508506571472   0.05149872633819919      -0.01993676322833296
0.17274061586352815       0.01789293055343954      0.00317731515503077      -0.00635241887600418     0.019908131067954693     -0.05166359114580347     8.442401377699925E-4     0.07072748207598806      -0.07072748207598806     -8.442401377699925E-4    0.05166359114580347      -0.019908131067954693
0.17347825500973357       0.01790476046036558      0.003205037774243381     -0.00638161209799879     0.019898185851466188     -0.05172085598999615     6.679592060058136E-4     0.07095108263545641      -0.07095108263545641     -6.679592060058136E-4    0.05172085598999615      -0.019898185851466188
0.17447119399990516       0.01792082556040716      0.003242277114116422     -0.00642117394542325     0.019883786681470617     -0.051799515560158035    4.301239967719984E-4     0.07125317824485652      -0.07125317824485652     -4.301239967719984E-4    0.051799515560158035     -0.019883786681470617
0.17698707207677739       0.017963048904692625     0.0033343015420249384    -0.006520712142609836    0.019846153865020755     -0.05200604175374975     -1.5965538712896062E-4   0.07201185100589935      -0.07201185100589935     1.5965538712896062E-4    0.05200604175374975      -0.019846153865020755
0.1795929842631088        0.018005618887956445     0.0034297970465603993    -0.006623071883855676    0.019808341380171422     -0.052214134171654374    -7.704408991910603E-4    0.07279291645101674      -0.07279291645101674     7.704408991910603E-4     0.052214134171654374     -0.019808341380171422
0.17999040676966396       0.0180121111517946       0.003444360876829241     -0.006638682565270667    0.019802574672994285     -0.05224586993418412     -8.635905879812502E-4    0.07291203519515954      -0.07291203519515954     8.635905879812502E-4     0.05224586993418412      -0.019802574672994285
0.1807550676475396        0.018024403273243488     0.0034724662462378183    -0.006668833735125923    0.019790870344696773     -0.05230674274827718     -0.001043927132730228    0.07314154022570406      -0.07314154022570406     0.001043927132730228     0.05230674274827718      -0.019790870344696773
0.18226018211679396       0.018049111280475455     0.003527541078505065     -0.006729760863541194    0.019761802342301363     -0.05243464277960047     -0.0014034441287291135   0.07359988925063082      -0.07359988925063082     0.0014034441287291135    0.05243464277960047      -0.019761802342301363
0.18269113565097525       0.018055629547254145     0.0035434204878342646    -0.006746898985817686    0.019753924614740376     -0.05246859357427622     -0.0015065983122652979   0.07372911650128178      -0.07372911650128178     0.0015065983122652979    0.05246859357427622      -0.019753924614740376