% Model:              Cylinder_slice_potential_2.mph
% Version:            COMSOL 6.2.0.339
% Date:               May 15 2024, 11:20
% Dimension:          1
% Nodes:              756
% Expressions:        11
% Description:        Line graph
% Arc length (m)          Magnetic scalar potential Magnetic scalar potential Magnetic scalar potential Magnetic scalar potential Magnetic scalar potential Magnetic scalar potential Magnetic scalar potential Magnetic scalar potential Magnetic scalar potential Magnetic scalar potential Magnetic scalar potential
0                         0.015719524063368837     -0.004847286294578746    -6.719367617497886E-7    0.016894501495954457     -0.045983594757520854    0.04597821926342685      0.016899876990048412     -0.016899876990048412    -0.04597821926342685     0.045983594757520854     -0.016894501495954457
0.0024500088926869604     0.01575076682731225      -0.004816441188653158    7.875553067715932E-5     0.01736723221137368      -0.045635835097875284    0.04626587934329254      0.016737187965956364     -0.016737187965956364    -0.04626587934329254     0.045635835097875284     -0.01736723221137368
0.006585373214946274      0.01580350141604211      -0.004764377805968414    2.1282096857606003E-4    0.018165153288483237     -0.045048852375685185    0.04675142012429365      0.016462585539874723     -0.016462585539874723    -0.04675142012429365     0.045048852375685185     -0.018165153288483237
0.011864117397012413      0.015870184731490128     -0.0046981251520289945   3.8384534256798543E-4    0.019181375377165227     -0.04429936354879527     0.04737012628933912      0.016110612636621315     -0.016110612636621315    -0.04737012628933912     0.04429936354879527      -0.019181375377165227
0.012302223667111511      0.01587710460700069      -0.004693130559696022    3.9824033441139865E-4    0.019267778872558913     -0.044240639555443814    0.04742656223073498      0.016081856197267694     -0.016081856197267694    -0.04742656223073498     0.044240639555443814     -0.019267778872558913
0.012950368552142771      0.015887712591959695     -0.004686799928439094    4.1916884076573176E-4    0.01939170076166503      -0.0441591496061737      0.047512500332299534     0.01603835003553915      -0.01603835003553915     -0.047512500332299534    0.0441591496061737       -0.01939170076166503
0.0159317807398359        0.01593442643294426      -0.004649247093076267    5.124844402166165E-4     0.019971049347526186     -0.043766656384250806    0.04786653190598372      0.015871173825793228     -0.015871173825793228    -0.04786653190598372     0.043766656384250806     -0.019971049347526186
0.026502726579426504      0.01610000560855955      -0.00451424101997644     8.435645758531643E-4     0.022031546460602458     -0.04236847597363573     0.04911699258046103      0.015283029853777108     -0.015283029853777108    -0.04911699258046103     0.04236847597363573      -0.022031546460602458
0.027778694296811453      0.016120721362645217     -0.004500028878172556    8.828036114457269E-4     0.02227257053655569      -0.042210314914025174    0.04927274380559096      0.01521014164498984      -0.01521014164498984     -0.04927274380559096     0.042210314914025174     -0.02227257053655569
0.033816291115759615      0.01622968105558819      -0.004423253213325346    0.0010666786988605627    0.02345631726664261      -0.04146240695571015     0.04999583654659463      0.014922887675758075     -0.014922887675758075    -0.04999583654659463     0.04146240695571015      -0.02345631726664261
0.034162423170693054      0.016235927653954103     -0.004418851707322322    0.0010772201549674395    0.023524180805811017     -0.0414195298100054      0.0500372910497449       0.014906419566071466     -0.014906419566071466    -0.0500372910497449      0.0414195298100054       -0.023524180805811017
0.034608777781137245      0.016244309681640295     -0.004414493541576049    0.0010913090153967355    0.0236103748001394       -0.04136686392642176     0.05009733604959564      0.014879902676965484     -0.014879902676965484    -0.05009733604959564     0.04136686392642176      -0.0236103748001394
0.03470506986644285       0.01624607685827969      -0.004413261748524246    0.001094151494175612     0.023628974447689105     -0.041355332985429635    0.05010854493883453      0.014875762494284179     -0.014875762494284179    -0.05010854493883453     0.041355332985429635     -0.023628974447689105
0.038201784072921824      0.016310249439449944     -0.004368530883572955    0.001197372188754683     0.024304394983199775     -0.0409366027746         0.05051558028463745      0.014725417473162278     -0.014725417473162278    -0.05051558028463745     0.0409366027746          -0.024304394983199775
0.039529694699902924      0.01633673853081673      -0.004352145604009428    0.0012372153231542003    0.024565901542222005     -0.040781052581044926    0.050678775166278514     0.014668178956988367     -0.014668178956988367    -0.050678775166278514    0.040781052581044926     -0.024565901542222005
0.044048259796098777      0.016426874629773956     -0.004296390381615068    0.001372792065114608     0.025455746375161167     -0.04025175214393467     0.05123408866485151      0.014473409854244272     -0.014473409854244272    -0.05123408866485151     0.04025175214393467      -0.025455746375161167
0.045389794385902446      0.016455539019462683     -0.004282893368021065    0.0014139883507163645    0.025718351337727655     -0.040103804740123095    0.05141571154585398      0.014406444531996706     -0.014406444531996706    -0.05141571154585398     0.040103804740123095     -0.025718351337727655
0.050703748243261154      0.0165757576092615       -0.004219708247351953    0.001568617236650188     0.02676685942306791      -0.03953617101397809     0.05208510890717957      0.014217921529866376     -0.014217921529866376    -0.05208510890717957     0.03953617101397809      -0.02676685942306791
0.051538049503654405      0.01659535050774573      -0.004209733428953053    0.0015931433370344236    0.026934074076770013     -0.0394473279542129      0.05219247465048826      0.01418892738049459      -0.01418892738049459     -0.05219247465048826     0.0394473279542129       -0.026934074076770013
0.05185104795930323       0.016602701026387348     -0.004205991252232906    0.00160234460749605      0.0269968067260602       -0.0394139973794892      0.052232754239457564     0.014178049866091768     -0.014178049866091768    -0.052232754239457564    0.0394139973794892       -0.0269968067260602
0.05273088230511243       0.016621049606966837     -0.00419560913555591     0.001627820093198553     0.027166552180060175     -0.039317646247807175    0.05234020699339557      0.014143991434471724     -0.014143991434471724    -0.05234020699339557     0.039317646247807175     -0.027166552180060175
0.0547509259344831        0.016663352556429156     -0.004170922479464122    0.0016870433116255913    0.027562110920968323     -0.03909129930474829     0.052587645797752984     0.014065764427963565     -0.014065764427963565    -0.052587645797752984    0.03909129930474829      -0.027562110920968323
0.055437969456138304      0.016677819462465552     -0.004162138648814389    0.001706895632210141     0.027696805507328524     -0.039014472342533704    0.0526696374002148       0.014041640449647364     -0.014041640449647364    -0.0526696374002148      0.039014472342533704     -0.027696805507328524
0.058056297304173866      0.01673589170709732      -0.004128287345214088    0.0017784017398311965    0.028200528337877194     -0.03874303849051211     0.05297025240916166      0.013973314419227592     -0.013973314419227592    -0.05297025240916166     0.03874303849051211      -0.028200528337877194
0.06009863809768515       0.016786942413620158     -0.004102435350423516    0.0018352068244200347    0.02860740607364993      -0.03854036358083071     0.05322201817619096      0.013925751478289623     -0.013925751478289623    -0.05322201817619096     0.03854036358083071      -0.02860740607364993
0.060675391104451595      0.016800905135854218     -0.004095721645598545    0.0018517602819978051    0.028721686462904048     -0.03848193408051284     0.05329601633649525      0.013907604206921581     -0.013907604206921581    -0.05329601633649525     0.03848193408051284      -0.028721686462904048
0.06565264744446288       0.01692140047258932      -0.004037783794364102    0.0019946131162465377    0.029707902027072505     -0.03797769986328478     0.053934604793257054     0.013750997097100181     -0.013750997097100181    -0.053934604793257054    0.03797769986328478      -0.029707902027072505
0.06745871468091405       0.016967188551607334     -0.0040166353842651156   0.002043548079293617     0.030058663267593808     -0.03781009093883553     0.05415847557318443      0.013710278633244847     -0.013710278633244847    -0.05415847557318443     0.03781009093883553      -0.030058663267593808
0.07005854620238605       0.017033100433920523     -0.003986192274454652    0.002113989897219425     0.03056358363335481      -0.03756881810232729     0.05448073728008266      0.013651664455599382     -0.013651664455599382    -0.05448073728008266     0.03756881810232729      -0.03056358363335481
0.07133453054300956       0.017063532525146755     -0.003971034216021486    0.0021494442908640424    0.03081173956568524      -0.03744239053490178     0.0546379448618141       0.013616185238772874     -0.013616185238772874    -0.0546379448618141      0.03744239053490178      -0.03081173956568524
0.07232872119402065       0.017087794948439608     -0.003958869286895997    0.0021755628678981056    0.031001233507783665     -0.03734994628597477     0.05475444922915958      0.013596730564598796     -0.013596730564598796    -0.05475444922915958     0.03734994628597477      -0.031001233507783665
0.07286095704810248       0.017101345737346802     -0.003953036101598901    0.002190507089840743     0.03110561152925989      -0.03729977142012732     0.05482382813885324      0.013581554810533922     -0.013581554810533922    -0.05482382813885324     0.03729977142012732      -0.03110561152925989
0.07685129785413618       0.01720294029456357      -0.003909302863521004    0.002302548655952446     0.03188816662237392      -0.03692359455588035     0.05534398380349989      0.013467777374754339     -0.013467777374754339    -0.05534398380349989     0.03692359455588035      -0.03188816662237392
0.07717049396430294       0.017211489572770137     -0.0039058349096465095   0.002311172336163346     0.031950163761254126     -0.0368957945298264      0.05538517321913314      0.01346078507194735      -0.01346078507194735     -0.05538517321913314     0.0368957945298264       -0.031950163761254126
0.07738055180241805       0.01721744612970285      -0.003903280631924009    0.0023165534565521353    0.03199126418984222      -0.03687852032896917     0.05541094798138622      0.01345883653742512      -0.01345883653742512     -0.05541094798138622     0.03687852032896917      -0.03199126418984222
0.08187324913996165       0.017344844410636613     -0.003848649979594166    0.0024316443546621522    0.03287031630113933      -0.0365090613414071      0.055962216178704276     0.0134171614638421       -0.0134171614638421      -0.055962216178704276    0.0365090613414071       -0.03287031630113933
0.08311545634544602       0.017380687340587824     -0.003835874956413162    0.002465120074830282     0.03311423011125728      -0.036408519251093986    0.05612947984973621      0.013393269512615012     -0.013393269512615012    -0.05612947984973621     0.036408519251093986     -0.03311423011125728
0.08370569458774435       0.017396612034771927     -0.003829518619448995    0.002481050571526368     0.03322887049730234      -0.03635757764178535     0.05620598221399627      0.013380465925091381     -0.013380465925091381    -0.05620598221399627     0.03635757764178535      -0.03322887049730234
0.08631205775553895       0.017466932006277393     -0.0038014504236625188   0.002551396165657436     0.03373509740419696      -0.03613263062091257     0.05654379994617203      0.01332392807893746      -0.01332392807893746     -0.05654379994617203     0.03613263062091257      -0.03373509740419696
0.08990635039561293       0.01756956013123824      -0.0037580876819925738   0.0026433755496901934    0.03443835941525952      -0.03583988110969341     0.05698688550721493      0.013291355017737965     -0.013291355017737965    -0.05698688550721493     0.03583988110969341      -0.03443835941525952
0.09141777708590255       0.01761471663192557      -0.0037399971031841      0.002680449449670462     0.034731239752980675     -0.03572762677472157     0.05717122237208524      0.01328764415561697      -0.01328764415561697     -0.05717122237208524     0.03572762677472157      -0.034731239752980675
0.09542813508139047       0.01773652812860507      -0.003699518711191387    0.002784158624940963     0.03551113462339982      -0.03543497789102043     0.05770824689054811      0.013237865623872105     -0.013237865623872105    -0.05770824689054811     0.03543497789102043      -0.03551113462339982
0.09552709291352994       0.017739608665612708     -0.0036985506700716016   0.002786605271778881     0.035529986408126116     -0.035428448254324674    0.0577212904285557       0.013237144233895062     -0.013237144233895062    -0.0577212904285557      0.035428448254324674     -0.035529986408126116
0.099162488989673         0.01785344081766578      -0.0036626934523121225   0.0028760134747853345    0.03622285517753652      -0.03519090809312657     0.05819901589140922      0.013214747379253839     -0.013214747379253839    -0.05819901589140922     0.03519090809312657      -0.03622285517753652
0.10035571789104804       0.017890554444931966     -0.0036515884784321146   0.002904802542026889     0.03644555362267514      -0.03511666415705271     0.05835508449326779      0.01320713328646002      -0.01320713328646002     -0.05835508449326779     0.03511666415705271      -0.03644555362267514
0.10356066689350144       0.017985747953919703     -0.003615193609891153    0.0029836461205054845    0.03706049956018788      -0.03488249225549092     0.058751661219534776     0.013191330596144        -0.013191330596144       -0.058751661219534776    0.03488249225549092      -0.03706049956018788
0.10593552459123037       0.018057942733295237     -0.00358569760007603     0.0030454322435802764    0.03754052164068347      -0.034691249292497436    0.05905470724113963      0.01317706369204126      -0.01317706369204126     -0.05905470724113963     0.034691249292497436     -0.03754052164068347
0.10793373607308496       0.018122754254813668     -0.003566965859906507    0.00309226135551489      0.037913656351967355     -0.03457736066728728     0.05931545151140637      0.01317556550784824      -0.01317556550784824     -0.05931545151140637     0.03457736066728728      -0.037913656351967355
0.11084144906801363       0.018216458561095415     -0.0035413269486055804   0.0031590478644450224    0.038445127734154164     -0.03442070651022746     0.05969308942578761      0.01317274481859398      -0.01317274481859398     -0.05969308942578761     0.03442070651022746      -0.038445127734154164
0.11165933037991009       0.018242815701943124     -0.003534115237392345    0.003177833569098828     0.03859461996810452      -0.03437664283966796     0.05979931139245856      0.013171951415313892     -0.013171951415313892    -0.05979931139245856     0.03437664283966796      -0.03859461996810452
0.11200591001973614       0.01825422638854378      -0.0035306903945470564   0.0031862848922649513    0.03866152116250618      -0.03435538439166891     0.059845663529788484     0.013171242024386569     -0.013171242024386569    -0.059845663529788484    0.03435538439166891      -0.03866152116250618
0.11488246535688812       0.01834490178665192      -0.003496370182600953    0.0032577916919732256    0.039231859793393865     -0.034147747353213784    0.06021008088899956      0.01316952625760806      -0.01316952625760806     -0.06021008088899956     0.034147747353213784     -0.039231859793393865
0.11642828731291882       0.018393629519943566     -0.003477926964604513    0.0032962184795851004    0.03953835206441397      -0.03403616601536025     0.06040591385204102      0.013168604227733166     -0.013168604227733166    -0.06040591385204102     0.03403616601536025      -0.03953835206441397
0.11670498315649694       0.018402914701522523     -0.0034754684813948842   0.0033023824957172905    0.03958895394172953      -0.034022704864360515    0.060441764830098804     0.01316989397599121      -0.01316989397599121     -0.060441764830098804    0.034022704864360515     -0.03958895394172953
0.12622731641395724       0.018725346603541287     -0.00338774051657525     0.003518215806918509     0.04136033488503086      -0.03354105152913426     0.06168677798448231      0.013214608429682763     -0.013214608429682763    -0.06168677798448231     0.03354105152913426      -0.04136033488503086
0.1278878549098633        0.01878157343063652      -0.0033724422006255997   0.003555853590879463     0.04166923462291408      -0.033457059099631946    0.061903887826667635     0.013222405895878354     -0.013222405895878354    -0.061903887826667635    0.033457059099631946     -0.04166923462291408
0.12800308202903393       0.018785504640555117     -0.003371427844128814    0.003558495306770602     0.0416907069758062       -0.033451311586414234    0.061919274040579036     0.01322274452164136      -0.01322274452164136     -0.061919274040579036    0.033451311586414234     -0.0416907069758062
0.13007407028414464       0.018855448240701525     -0.003353312740202714    0.003604587988956481     0.04206931021662082      -0.033352482746185234    0.06218918665783706      0.013232606304968957     -0.013232606304968957    -0.06218918665783706     0.033352482746185234     -0.04206931021662082
0.1321634942439437        0.018926014470915464     -0.003335036377657425    0.003651090983018815     0.042451283740933904     -0.03325277414272791     0.06246150200687841      0.01324255587678337      -0.01324255587678337     -0.06246150200687841     0.03325277414272791      -0.042451283740933904
0.13521425803542364       0.019030723850328172     -0.0033117984193082846   0.003718484516546372     0.04299999050891698      -0.03312290489239569     0.06287078102476665      0.013252114376545974     -0.013252114376545974    -0.06287078102476665     0.03312290489239569      -0.04299999050891698
0.13840335227906653       0.019140220463850544     -0.0032860918969616283   0.003786302415336169     0.0435673748981609       -0.03299350695724128     0.06328392627993061      0.013276955575471499     -0.013276955575471499    -0.06328392627993061     0.03299350695724128      -0.0435673748981609
0.1401065117112423        0.01920117019374027      -0.0032732554228606372   0.0038209460226796945    0.043866358209617415     -0.03293832256534366     0.0635058907467812       0.013298790028179823     -0.013298790028179823    -0.0635058907467812      0.03293832256534366      -0.043866358209617415
0.14069696653882613       0.019222300371909997     -0.0032688052475224414   0.003832956339984383     0.04397001036119021      -0.03291919112644976     0.06358284184632482      0.013306359641315104     -0.013306359641315104    -0.06358284184632482     0.03291919112644976      -0.04397001036119021
0.14822034996772107       0.019490796475616586     -0.0032159679219125074   0.003993448437441059     0.04530748293525989      -0.032655702967206435    0.0646032904667349       0.013359895435731371     -0.013359895435731371    -0.0646032904667349      0.032655702967206435     -0.04530748293525989
0.15265094641095567       0.01964406183406311      -0.0031882158289081846   0.004081958064475909     0.046051308439305313     -0.03252493889694712     0.06518060341275438      0.013395643923497987     -0.013395643923497987    -0.06518060341275438     0.03252493889694712      -0.046051308439305313
0.15374198834130956       0.019683387411293954     -0.003181953425273802    0.004102744739450127     0.046231893504567016     -0.03250165614060877     0.06532361405620979      0.013409935588965943     -0.013409935588965943    -0.06532361405620979     0.03250165614060877      -0.046231893504567016
0.1542339047887415        0.019701118075630863     -0.0031791299046899403   0.004112116796584469     0.04631331362352979      -0.032491158678993645    0.0653880930516694       0.013416379250853988     -0.013416379250853988    -0.0653880930516694      0.032491158678993645     -0.04631331362352979
0.1612264419000185        0.019952471779530252     -0.0031425864999020713   0.00425227366467362      0.04748627871804878      -0.03232360840007222     0.06634179771746118      0.013468089400659768     -0.013468089400659768    -0.06634179771746118     0.03232360840007222      -0.04748627871804878
0.16689854054284486       0.020150145958864434     -0.003117250850306146    0.004358275278159192     0.048381640479447194     -0.03221894335601051     0.06708514558128405      0.013515438254173617     -0.013515438254173617    -0.06708514558128405     0.03221894335601051      -0.048381640479447194
0.17038170903689143       0.02027525828431456      -0.0031066992062037564   0.00442460220824312      0.04892882778299033      -0.03217220535426788     0.06756902302021285      0.01353201011704532      -0.01353201011704532     -0.06756902302021285     0.03217220535426788      -0.04892882778299033
0.1708035675563586        0.020290312131106644     -0.003105982188497755    0.004431999508986202     0.04899067573266483      -0.03217057279176173     0.06762656886365133      0.013534679660775175     -0.013534679660775175    -0.06762656886365133     0.03217057279176173      -0.04899067573266483
0.17106630360451291       0.020299687758320882     -0.003105535625515526    0.00443660659281777      0.04902919501136627      -0.03216955602191724     0.06766240876445939      0.013536342268824057     -0.013536342268824057    -0.06766240876445939     0.03216955602191724      -0.04902919501136627
0.17423253383231593       0.020411968162877457     -0.003098063190262677    0.004494937057924899     0.049509494986666465     -0.03213837766484332     0.0680978741282425       0.013549998523267232     -0.013549998523267232    -0.0680978741282425      0.03213837766484332      -0.049509494986666465
0.17993060660408788       0.02060841325302866      -0.003083886272379342    0.004593920104302634     0.05034084810612981      -0.032092804905984776    0.06884416574040583      0.013589487271708696     -0.013589487271708696    -0.06884416574040583     0.032092804905984776     -0.05034084810612981
0.1809665756037038        0.020644129017230825     -0.0030813087609951433   0.004611916253464309     0.05049199676533344      -0.03208451930358982     0.06897984933130429      0.01359666673761893      -0.01359666673761893     -0.06897984933130429     0.03208451930358982      -0.05049199676533344
0.18438690901457805       0.02076548250009012      -0.0030825512479107572   0.004671432229805349     0.05096904017566935      -0.032092889824691107    0.06946434766313388      0.013597582337226528     -0.013597582337226528    -0.06946434766313388     0.032092889824691107     -0.05096904017566935
0.1856410948588571        0.020809962337363767     -0.0030830354549118053   0.004693307456749742     0.05114404813699107      -0.03209580121246397     0.06964226086646189      0.013597588482993101     -0.013597588482993101    -0.06964226086646189     0.03209580121246397      -0.05114404813699107
0.1869892059052168        0.020857773242137098     -0.0030835559238756474   0.004716820905908716     0.05133216233628209      -0.03209893063226626     0.06983349787953595      0.013597595089012334     -0.013597595089012334    -0.06983349787953595     0.03209893063226626      -0.05133216233628209
0.18708440287460862       0.02086112915778769      -0.00308373249200031     0.004718541172783922     0.051345225530710116     -0.032099291100440616    0.06984762048271195      0.013596896148438713     -0.013596896148438713    -0.06984762048271195     0.032099291100440616     -0.051345225530710116
0.18723862576461336       0.020866565875086077     -0.003084018539409614    0.004721328073782646     0.051366388427073875     -0.032099875073270404    0.06987049966353154      0.013595763836812682     -0.013595763836812682    -0.06987049966353154     0.032099875073270404     -0.051366388427073875
0.1960035751364214        0.0211502722576722       -0.0030888257671386073   0.004862248415365374     0.05248306087539005      -0.032118028155298746    0.07101601547822167      0.01358507355246705      -0.01358507355246705     -0.07101601547822167     0.032118028155298746     -0.05248306087539005
0.19885774530148048       0.02124552331839779      -0.003098529218071429    0.004908220616627995     0.05282834144909325      -0.03215375182449791     0.07141951675752181      0.013562576516069276     -0.013562576516069276    -0.07141951675752181     0.03215375182449791      -0.05282834144909325
0.19994696197857081       0.021281641549390905     -0.003103832002513025    0.0049264495940373205    0.05295758546739199      -0.03216898073017163     0.07158057748247013      0.013545988715093417     -0.013545988715093417    -0.07158057748247013     0.03216898073017163      -0.05295758546739199
0.2002447176969108        0.021291515075972642     -0.0031052816079256296   0.004931432791942089     0.05299291649593672      -0.032173143807953844    0.07162460614349049      0.013541454160400002     -0.013541454160400002    -0.07162460614349049     0.032173143807953844     -0.05299291649593672
0.20954900527912865       0.02157320954874208      -0.0031384247150348455   0.0050686055994226265    0.05400556735007009      -0.03228727084489825     0.0728361156402792       0.01345672255468908      -0.01345672255468908     -0.0728361156402792      0.03228727084489825      -0.05400556735007009
0.21095085046955933       0.021615611857275188     -0.0031429748696199205   0.005089362507828175     0.054159749137003284     -0.032302698292097504    0.07301759835472284      0.01344484907437788      -0.01344484907437788     -0.07301759835472284     0.032302698292097504     -0.054159749137003284
0.21298562762779177       0.021677172435398268     -0.003157087740246236    0.005120350822395219     0.05436448493963868      -0.03234420480195442     0.0733070113811161       0.013401678360476914     -0.013401678360476914    -0.0733070113811161      0.03234420480195442      -0.05436448493963868
0.21354777496849736       0.021692199726397233     -0.0031601110779438503   0.005128022344888666     0.054416155598517556     -0.03235264330707141     0.07337682206618067      0.013391976839408215     -0.013391976839408215    -0.07337682206618067     0.03235264330707141      -0.054416155598517556
0.21778471692396745       0.02181118798460701      -0.0031942103474234635   0.005186732748768725     0.054786675922018496     -0.03245807601640956     0.07395193800655929      0.013292813931868687     -0.013292813931868687    -0.07395193800655929     0.03245807601640956      -0.054786675922018496
0.21781332369305378       0.021811975257397382     -0.003194369329305198    0.005187120321580562     0.05478932381320138      -0.03245857721638816     0.07395553978903258      0.01329236124055689      -0.01329236124055689     -0.07395553978903258     0.03245857721638816      -0.05478932381320138
0.22470747396521962       0.022001705768580092     -0.003232683512214827    0.005280524270769768     0.05542745808359474      -0.03257936499072562     0.07482355915688368      0.013183263917436593     -0.013183263917436593    -0.07482355915688368     0.03257936499072562      -0.05542745808359474
0.22628604205050704       0.022032023908982106     -0.003253223866653377    0.005301502857186498     0.055510387646750044     -0.03261770798917838     0.07502973084667029      0.013098364789258054     -0.013098364789258054    -0.07502973084667029     0.03261770798917838      -0.055510387646750044
0.23002568507659887       0.022115910545490836     -0.0032839722868076983   0.005347439423019454     0.055769661922636375     -0.03269398025932697     0.07547349564348252      0.012990146538480725     -0.012990146538480725    -0.07547349564348252     0.03269398025932697      -0.055769661922636375
0.2311305623156953        0.02214601126138478      -0.003293555813792348    0.005360661103630758     0.05585399949591552      -0.03273004554962358     0.07561533437866956      0.012968710666869443     -0.012968710666869443    -0.07561533437866956     0.03273004554962358      -0.05585399949591552
0.23583848572887814       0.022260887826799188     -0.003336773149873171    0.005419055173000981     0.05618767689598276      -0.032855874411213966    0.07620831579522175      0.012835235511974906     -0.012835235511974906    -0.07620831579522175     0.032855874411213966     -0.05618767689598276
0.23632063197442696       0.022272822878868226     -0.003341302392445235    0.005425020021950013     0.05622181866820078      -0.032869472847272097    0.07626963302287215      0.012821658492600661     -0.012821658492600661    -0.07626963302287215     0.032869472847272097     -0.05622181866820078
0.2363881335135655        0.022274173895825814     -0.003341615667258462    0.0054257357936552284    0.056226443964497136     -0.03287025161880611     0.07627613796804789      0.012820557615255301     -0.012820557615255301    -0.07627613796804789     0.03287025161880611      -0.056226443964497136
0.24558736075559068       0.02245273486543486      -0.003449073259061265    0.005528685735336332     0.056672992895031235     -0.03313794656670819     0.07736743244939878      0.012443507012340566     -0.012443507012340566    -0.07736743244939878     0.03313794656670819      -0.056672992895031235
0.24607655150406393       0.02246212496927055      -0.003456690267918337    0.005534150172615324     0.05669077982524737      -0.033157720051834816    0.07743092143275736      0.01241757844432476      -0.01241757844432476     -0.07743092143275736     0.033157720051834816     -0.05669077982524737