% Model:              Cylinder_slice_potential_4.mph
% Version:            COMSOL 6.2.0.415
% Date:               May 17 2024, 21:56
% Dimension:          1
% Nodes:              787
% Expressions:        11
% Description:        Line graph
% Arc length (m)          Magnetic scalar potential Magnetic scalar potential Magnetic scalar potential Magnetic scalar potential Magnetic scalar potential Magnetic scalar potential Magnetic scalar potential Magnetic scalar potential Magnetic scalar potential Magnetic scalar potential Magnetic scalar potential
0                         -2.716330183859406E-7    -1.1237799156789946E-7   -1.2439317680974131E-7   -1.3779727187209162E-6   -2.914406451551174E-7    -7.037047692710831E-7    -3.828273042710818E-7    3.828273042710818E-7     7.037047692632769E-7     2.914406451551174E-7     1.3779727187209162E-6
9.206817742929327E-4      3.936654411793133E-5     2.1028904203087366E-5    3.948793921870838E-5     2.997715577199523E-4     1.4230538124824897E-4    1.7359813250147037E-4    -1.6131956029743718E-5   1.6131956029743718E-5    -1.7359813250147817E-4   -1.4230538124824897E-4   -2.997715577199523E-4
0.0018881329962835277     8.101566840201097E-5     4.324360501756074E-5     8.111239033727696E-5     6.162117132058068E-4     2.9214903959778416E-4    3.5675008310048436E-4    -3.268740949243946E-5    3.268740949243946E-5     -3.567500831004921E-4    -2.9214903959778416E-4   -6.162117132058068E-4
0.002384896868065864      1.0240527852789253E-4    5.4649798822878266E-5    1.0248785948999831E-4    7.787113914844081E-4     3.6909027737285914E-4    4.5081259854718055E-4    -4.1191484435609404E-5   4.1191484435609404E-5    -4.508125985471884E-4    -3.6909027737285914E-4   -7.787113914844081E-4
0.006624602963648527      2.8492948177983576E-4    1.5199045240524937E-4    2.8491849056569007E-4    0.0021655042830381757    0.0010257863559188535    0.0012535615686067219    -1.138436414873786E-4    1.138436414873786E-4     -0.0012535615686067299   -0.0010257863559188535   -0.0021655042830381757
0.010121481260465172      4.3545530299478926E-4    2.32283748064037E-4      4.3538824636880815E-4    0.0033093148356569194    0.0015674936236777818    0.0019156123472727391    -1.7379113529358156E-4   1.7379113529358156E-4    -0.0019156123472727474   -0.0015674936236777818   -0.0033093148356569194
0.010149808370228965      4.366748788831965E-4     2.3293414784041533E-4    4.366072841579792E-4     0.0033185813379195527    0.0015718818223867867    0.0019209764508771026    -1.7427693534431636E-4   1.7427693534431636E-4    -0.0019209764508771108   -0.0015718818223867867   -0.0033185813379195527
0.014845879423753955      6.388729784722914E-4     3.407577024776275E-4     6.386943355948517E-4     0.0048547964067568675    0.0022993044928677217    0.0028102501918911464    -2.547582780019791E-4    2.547582780019791E-4     -0.002810250191891154    -0.0022993044928677217   -0.0048547964067568675
0.015894079010191006      6.839980846691987E-4     3.6482297212319824E-4    6.838013590002314E-4     0.005197670521708913     0.0024616781830321373    0.003008732688969767     -2.7274035029297073E-4   2.7274035029297073E-4    -0.0030087326889697745   -0.0024616781830321373   -0.005197670521708913
0.017197289711808426      7.401059292711802E-4     3.947434169170232E-4     7.398796673222497E-4     0.005623960778582425     0.002663537061497723     0.003255500277080329     -2.950765599956068E-4    2.950765599956068E-4     -0.0032555002770803376   -0.002663537061497723    -0.005623960778582425
0.01835482952464682       7.899467239068036E-4     4.213287366374843E-4     7.897005198546326E-4     0.006002681737144588     0.0028428948415173917    0.0034747093173197238    -3.1492242169250804E-4   3.1492242169250804E-4    -0.003474709317319732    -0.0028428948415173917   -0.006002681737144588
0.02267984019177746       9.761335470920437E-4     5.206329494069997E-4     9.758554463385328E-4     0.0074175877277592155    0.0035130535393910578    0.004293790031317258     -3.89255842949082E-4     3.89255842949082E-4      -0.004293790031317267    -0.0035130535393910578   -0.0074175877277592155
0.022967925328892257      9.885361735732646E-4     5.272469883652583E-4     9.882541045223303E-4     0.007511829730331623     0.003557685036038582     0.0043483478001401146    -3.9420310584705446E-4   3.9420310584705446E-4    -0.004348347800140123    -0.003557685036038582    -0.007511829730331623
0.025163555056733483      0.0010830623114997356    5.776556304191025E-4     0.001082749998223503     0.00823009150715079      0.003897842261151864     0.0047641577246362145    -4.319084786372708E-4    4.319084786372708E-4     -0.004764157724636224    -0.003897842261151864    -0.00823009150715079
0.025748601631154933      0.0011082485133522657    5.91088966306764E-4      0.001107927792348977     0.00842147509502073      0.003988481041611684     0.004874941297180188     -4.4194724377112236E-4   4.4194724377112236E-4    -0.004874941297180195    -0.003988481041611684    -0.00842147509502073
0.02632722673656497       0.001133158271547518     6.043748579499947E-4     0.0011328292351003538    0.008610758057346433     0.004078124971156377     0.004984508909646506     -4.518758234564324E-4    4.518758234564324E-4     -0.004984508909646514    -0.004078124971156377    -0.008610758057346433
0.026987596542806993      0.0011615946283891996    6.195411631939725E-4     0.001161256167986694     0.008826837418307091     0.004180458904750309     0.005109590439143297     -4.632119255864966E-4    4.632119255864966E-4     -0.005109590439143306    -0.004180458904750309    -0.008826837418307091
0.027306861979442057      0.0011753439581555498    6.268737127401534E-4     0.0011750012723729664    0.008931314144023423     0.0042299383114012415    0.005170071867582544     -4.68696034960344E-4     4.68696034960344E-4      -0.005170071867582553    -0.0042299383114012415   -0.008931314144023423
0.027531198160389386      0.001185004957641976     6.320262360599822E-4     0.001184661006551086     0.00900473264966824      0.004264712819100354     0.005212575233308388     -4.725554027404832E-4    4.725554027404832E-4     -0.005212575233308397    -0.004264712819100354    -0.00900473264966824
0.029424603657379346      0.001266544143415629     6.755137196033656E-4     0.001266189513076776     0.009624387497948458     0.004558210924285959     0.005571305180328304     -5.051286066657865E-4    5.051286066657865E-4     -0.0055713051803283125   -0.004558210924285959    -0.009624387497948458
0.032285811658667285      0.0013897587364751535    7.412456933187952E-4     0.0013893672891440213    0.010560723709482777     0.005001688763582179     0.006113249549570045     -5.542146036694309E-4    5.542146036694309E-4     -0.0061132495495700555   -0.005001688763582179    -0.010560723709482777
0.03269434683244974       0.001407351828331967     7.506311778039531E-4     0.001406955124117612     0.01069441768654624      0.005065010373218388     0.006190630619722562     -5.612233063946927E-4    5.612233063946927E-4     -0.006190630619722571    -0.005065010373218388    -0.01069441768654624
0.03529628275460757       0.001519399604893877     8.104007341681784E-4     0.0015189738352200427    0.011545896753172458     0.005468298333596968     0.00668349234816343      -6.058939285879217E-4    6.058939285879217E-4     -0.006683492348163439    -0.005468298333596968    -0.011545896753172458
0.0359732200725231        0.001548541720115413     8.259371664562835E-4     0.0015481136304893622    0.011767349461557124     0.005573182581095489     0.006811726462819463     -6.175595823578119E-4    6.175595823578119E-4     -0.006811726462819473    -0.005573182581095489    -0.011767349461557124
0.037476115129982744      0.001613241865500387     8.604277977286751E-4     0.001612832617542788     0.012259097594357952     0.005806130132356419     0.0070965308079859405    -6.435633459843928E-4    6.435633459843928E-4     -0.007096530807985951    -0.005806130132356419    -0.012259097594357952
0.04060194372215807       0.0017478098537031706    9.321638786069049E-4     0.00174743979399473      0.013281870519205975     0.006290631104393308     0.007688887247564585     -6.976478327519036E-4    6.976478327519036E-4     -0.007688887247564594    -0.006290631104393308    -0.013281870519205975
0.04228045368545699       0.0018201038364748633    9.707380752214186E-4     0.0018197461218015412    0.013831406385820144     0.006550991039920708     0.008006977934491673     -7.265625885922212E-4    7.265625885922212E-4     -0.008006977934491684    -0.006550991039920708    -0.013831406385820144
0.0441380303241207        0.0019000855969521988    0.00101339006318538      0.0018997559285906802    0.014439365097823256     0.006839022710014478     0.008359024718711016     -7.586823309022217E-4    7.586823309022217E-4     -0.008359024718711026    -0.006839022710014478    -0.014439365097823256
0.044774440338650516      0.001927490591316877     0.001028013593604855     0.0019271641919902027    0.014647678731409127     0.006937716366141635     0.008479597169780037     -7.696348045125296E-4    7.696348045125296E-4     -0.008479597169780046    -0.006937716366141635    -0.014647678731409127
0.045721833636162         0.001968277045782544     0.0010497734073435978    0.0019679785922366525    0.01495778868254249      0.00708468049941233      0.008659148238480942     -7.860400553507676E-4    7.860400553507676E-4     -0.00865914823848095     -0.00708468049941233     -0.01495778868254249
0.049450347272004515      0.0021288361758956833    0.0011354656272614706    0.0021285601463677177    0.01617830981904665      0.007662965115463931     0.009365516055477864     -8.501713518951305E-4    8.501713518951305E-4     -0.009365516055477871    -0.007662965115463931    -0.01617830981904665
0.053897025464874085      0.0023203212694935453    0.0012376633829420092    0.002320071983167093     0.01763392062048149      0.008352635542507321     0.010207940322829474     -9.266552448552901E-4    9.266552448552901E-4     -0.010207940322829479    -0.008352635542507321    -0.01763392062048149
0.05787871043795592       0.0024918742713033316    0.0013291346163102516    0.0024916884790099924    0.018937906307577388     0.008970409222364072     0.010963098609715918     -9.956015245025877E-4    9.956015245025877E-4     -0.010963098609715925    -0.008970409222364072    -0.018937906307577388
0.06237688087090536       0.002685703376974307     0.0014324405350398229    0.002685601111491622     0.020411132805034572     0.009668319297137351     0.011816489594795672     -0.0010736760868984392   0.0010736760868984392    -0.011816489594795677    -0.009668319297137351    -0.020411132805034572
0.06652349254977612       0.0028643170924743592    0.0015276926574241403    0.0028644019488637653    0.0217693199526762       0.010312051582778765     0.012603164008131397     -0.0011458956382339536   0.0011458956382339536    -0.012603164008131404    -0.010312051582778765    -0.0217693199526762
0.06700347204030693       0.002884986652461369     0.0015387172650842503    0.002885092452517426     0.02192649491024519      0.010386548300399721     0.01269419131973973      -0.0011542447098942482   0.0011542447098942482    -0.012694191319739737    -0.010386548300399721    -0.02192649491024519
0.0676250116020152        0.00291176794177963      0.0015529955644982218    0.0029119105509224927    0.022130164780743894     0.010483093013625383     0.012812191393754606     -0.0011651196266360834   0.0011651196266360834    -0.012812191393754613    -0.010483093013625383    -0.022130164780743894
0.0676768853852636        0.002914003840409649     0.0015541875180698835    0.0029141481613387727    0.022147162880384038     0.010491147518745449     0.01282203777196478      -0.0011660224103261793   0.0011660224103261793    -0.012822037771964785    -0.010491147518745449    -0.022147162880384038
0.07120907373697745       0.00306625059401062      0.0016353499908636684    0.0030665114738470008    0.02330459705600025      0.011039594679957777     0.01349249711081828      -0.001227494734775797    0.001227494734775797     -0.013492497110818288    -0.011039594679957777    -0.02330459705600025
0.07453497465669157       0.003209551790217597     0.0017118266817129344    0.0032099470156906605    0.024394371688336646     0.011556164527466264     0.014123411598059079     -0.001285204437188687    0.001285204437188687     -0.014123411598059084    -0.011556164527466264    -0.024394371688336646
0.0782745888519918        0.0033708909678839974    0.001797855893785193     0.0033712731481294056    0.0256204422096412       0.012136878338105218     0.01483330684693008      -0.0013497429753940868   0.0013497429753940868    -0.014833306846930086    -0.012136878338105218    -0.0256204422096412
0.07851292734279225       0.003381167700358937     0.001803338441986093     0.003381556930693852     0.025698578449451566     0.012173907648015824     0.014878547797535047     -0.0013538769960992941   0.0013538769960992941    -0.014878547797535054    -0.012173907648015824    -0.025698578449451566
0.08139773053689203       0.003505555291171702     0.001869698149596248     0.0035060298544323204    0.026644324448861438     0.01262210328417464      0.015426135551283988     -0.001403914386597174    0.001403914386597174     -0.015426135551283988    -0.01262210328417464     -0.026644324448861438
0.08167750746147188       0.0035176127533577267    0.0018761300059346542    0.0035180967715016027    0.026736002610525837     0.012665551597094937     0.01547922257491795      -0.0014087715614870349   0.0014087715614870349    -0.01547922257491795     -0.012665551597094937    -0.026736002610525837
0.08197890410745155       0.003530619085078239     0.0018830620652071281    0.003531100062798314     0.026834824616971124     0.012712348276658177     0.015536452225728395     -0.001413975885415431    0.001413975885415431     -0.015536452225728395    -0.012712348276658177    -0.026834824616971124
0.08470396140616113       0.003648181408775408     0.001945721716063785     0.0036487285503552696    0.02772844216716325      0.013135716532061633     0.016054111870780582     -0.0014613862356789467   0.0014613862356789467    -0.016054111870780582    -0.013135716532061633    -0.02772844216716325
0.08484223017641275       0.00365414296111521      0.0019489009674115592    0.0036546924394036946    0.027773758582079883     0.013157186737619054     0.016080352777610562     -0.0014637809331497222   0.0014637809331497222    -0.01608035277761057     -0.013157186737619054    -0.027773758582079883
0.08771319498845875       0.003777926567215102     0.0020149138402497254    0.0037785245641113836    0.02871469291162493      0.013602986642764523     0.016625209870126605     -0.0015135036012661933   0.0015135036012661933    -0.016625209870126608    -0.013602986642764523    -0.02871469291162493
0.08988307374417454       0.0038714731654687813    0.002064815347260663     0.0038721493396142036    0.029425989731176376     0.01394009706930126      0.01703709764761243      -0.0015512049857373022   0.0015512049857373022    -0.017037097647612433    -0.01394009706930126     -0.029425989731176376
0.09210664318874018       0.003967435699600953     0.0021159933211065364    0.003967979977392287     0.030154771272090673     0.014285028473686864     0.017458811345451488     -0.0015890685470476707   0.0015890685470476707    -0.01745881134545149     -0.014285028473686864    -0.030154771272090673
0.09557204340440374       0.00411715326803343      0.0021958346617317968    0.004117669195226717     0.031292487302169124     0.014823874230035408     0.01811747933177838      -0.0016488662596446566   0.0016488662596446566    -0.018117479331778385    -0.014823874230035408    -0.031292487302169124
0.09559253117730271       0.004118038462660231     0.0021963067082063224    0.0041185534491448746    0.03129921084651894      0.014827056995878014     0.018121370597281042     -0.001649216746640106    0.001649216746640106     -0.018121370597281045    -0.014827056995878014    -0.03129921084651894
0.09590934391692438       0.004131726672510971     0.002203606200325873     0.004132227112344581     0.03140318039537789      0.01487627370533401      0.018181543193422692     -0.0016546365033788      0.0016546365033788       -0.018181543193422696    -0.01487627370533401     -0.03140318039537789
0.0975197232812497        0.0042012309165639725    0.0022406727080350637    0.004201646790152071     0.031931067117841425     0.01512614345158554      0.018487030869631084     -0.001682107203375186    0.001682107203375186     -0.018487030869631087    -0.01512614345158554     -0.031931067117841425
0.09987594902078051       0.004303035670744702     0.002294955644145769     0.004303243026962973     0.03270391038177861      0.015491767698799801     0.01893417651690403      -0.0017220338339252158   0.0017220338339252158    -0.018934176516904037    -0.015491767698799801    -0.03270391038177861
0.10073248570960261       0.004340060125118623     0.002314703513274012     0.004340155414234591     0.032984852446997656     0.01562461194652317      0.01909663136735362      -0.0017363908668791249   0.0017363908668791249    -0.019096631367353626    -0.01562461194652317     -0.032984852446997656
0.1031219443434149        0.004443321616002727     0.0023697876449025796    0.004443142021284538     0.033768574251851355     0.015995287787840443     0.01954984838243591      -0.0017765619184249948   0.0017765619184249948    -0.019549848382435914    -0.015995287787840443    -0.033768574251851355
0.10500430319618637       0.004524542731562208     0.002413134341734764     0.0045242787685101146    0.03438560356236918      0.01628743263612034      0.019906797511960627     -0.001808626585711784    0.001808626585711784     -0.019906797511960627    -0.01628743263612034     -0.03438560356236918
0.10512195096558491       0.0045296190660026716    0.0024158435181415865    0.00452934982991442      0.034424168006087795     0.01630569174207711      0.01992910689723831      -0.001810630633227614    0.001810630633227614     -0.01992910689723831     -0.01630569174207711     -0.034424168006087795
0.10513988621182924       0.004530395122224117     0.002416257292876693     0.004530123481220071     0.03443005604795861      0.016308475559062136     0.019932512290698482     -0.0018109318018020076   0.0018109318018020076    -0.019932512290698482    -0.016308475559062136    -0.03443005604795861
0.10607640055296219       0.004570977551500879     0.0024378944159640977    0.004570563125150646     0.034737890851496644     0.016453980645493124     0.020110524355712093     -0.0018266141497085661   0.0018266141497085661    -0.020110524355712093    -0.016453980645493124    -0.034737890851496644
0.10814656008644322       0.004660684776653965     0.002485723151381331     0.004659954724121973     0.03541835790393982      0.016775618797323963     0.020504018995651876     -0.0018612798890360097   0.0018612798890360097    -0.020504018995651883    -0.016775618797323963    -0.03541835790393982
0.1082087121301401        0.004663371712741347     0.002487156513499162     0.004662629919951568     0.03543873264578646      0.016785245794821067     0.02051579356479152      -0.001862306713826126    0.001862306713826126     -0.020515793564791527    -0.016785245794821067    -0.03543873264578646
0.10842826684571973       0.004672863427789746     0.002492219925631481     0.004672080162044188     0.03551070728065069      0.016819253569491717     0.02055738772686184      -0.0018659340157028558   0.0018659340157028558    -0.02055738772686185     -0.016819253569491717    -0.03551070728065069
0.11337700074722563       0.004886936987939483     0.0026063929428485296    0.004885381564485635     0.037134579062367105     0.01758683111060917      0.021496221405275955     -0.0019484734535180164   0.0019484734535180164    -0.02149622140527596     -0.01758683111060917     -0.037134579062367105
0.11492749589491529       0.004954008692110084     0.002642164659961518     0.004952211342781093     0.03764335673522909      0.017827321966788767     0.021790368775460027     -0.001974334007019685    0.001974334007019685     -0.02179036877546003     -0.017827321966788767    -0.03764335673522909
0.11687691366922316       0.005038344944063948     0.002687165027072644     0.005036265610297304     0.03828324741053504      0.018129867634279255     0.022160257248099217     -0.002006877471843416    0.002006877471843416     -0.022160257248099224    -0.018129867634279255    -0.03828324741053504
0.11946503741001198       0.005150464484842083     0.0027469179398238687    0.005147571234699513     0.039131967727953826     0.018530109788585502     0.022650460089010647     -0.0020486021496423155   0.0020486021496423155    -0.02265046008901065     -0.018530109788585502    -0.039131967727953826
0.12497710705937587       0.005389536080568483     0.0028743547354052605    0.005385154391609555     0.04094275393379097      0.019384609611517046     0.023696625521359444     -0.0021384811990855096   0.0021384811990855096    -0.023696625521359444    -0.019384609611517046    -0.04094275393379097
0.12637602362786132       0.005450189673633458     0.0029067144695762034    0.00544540051001079      0.041402124796038685     0.01960136610150486      0.023961837978581504     -0.002161079284047666    0.002161079284047666     -0.023961837978581507    -0.01960136610150486     -0.041402124796038685
0.12683648087001104       0.005470153970874863     0.0029173657652207916    0.005465230685844143     0.041553327980788674     0.019672712097289227     0.02404913338946396      -0.0021685175059645047   0.0021685175059645047    -0.02404913338946397     -0.019672712097289227    -0.041553327980788674
0.12979646519252866       0.005598575069191565     0.002985917656681095     0.005592744184488724     0.0425258798463813       0.020131579569615053     0.02461037390629478      -0.0022160736295285125   0.0022160736295285125    -0.024610373906294787    -0.020131579569615053    -0.0425258798463813
0.133305384419616         0.00575119317571349      0.003067403694408454     0.005743460125910495     0.04367843793829431      0.02067366523544037      0.02527401577184364      -0.0022692430689896744   0.0022692430689896744    -0.025274015771843645    -0.02067366523544037     -0.04367843793829431
0.14230723958243408       0.0061426812673437215    0.003276084531145624     0.006130455145503564     0.04663543671013855      0.02206471164076367      0.026978929523264868     -0.0024082044538899674   0.0024082044538899674    -0.026978929523264875    -0.02206471164076367     -0.04663543671013855
0.14251558571447195       0.006151742180694889     0.0032809144072520743    0.006139412067603708     0.04670387585356081      0.022096907130781263     0.02701838941004843      -0.0024114206872688595   0.0024114206872688595    -0.027018389410048436    -0.022096907130781263    -0.04670387585356081
0.14271601671583414       0.006160436212413542     0.0032855526117151817    0.006147997128133797     0.04676951877250779      0.022127773922853634     0.027056203102216767     -0.002414458252562586    0.002414458252562586     -0.027056203102216774    -0.022127773922853634    -0.04676951877250779
0.14445052667329852       0.0062362361887638215    0.0033260362914407475    0.006222184954099409     0.0473393210682475       0.02239437631319223      0.027383103319603082     -0.0024381585645477837   0.0024381585645477837    -0.027383103319603093    -0.02239437631319223     -0.0473393210682475
0.1474229140417542        0.006366152276491904     0.0033954148553328152    0.00634940514956002      0.048316169717222315     0.022851560611254713     0.027943680585225485     -0.0024790714792578576   0.0024790714792578576    -0.0279436805852255      -0.022851560611254713    -0.048316169717222315
0.14780230180810192       0.006382847960480747     0.0034043182230702185    0.006365637079509993     0.04844119890821211      0.022909807066289128     0.028015289569790852     -0.00248389772786785     0.00248389772786785      -0.028015289569790866    -0.022909807066289128    -0.04844119890821211
0.14783270232238185       0.006384177550865501     0.0034050271915285098    0.006366939177075574     0.04845119338461882      0.022914483181156818     0.028021030235447806     -0.002484320031985791    0.002484320031985791     -0.02802103023544782     -0.022914483181156818    -0.04845119338461882
0.15692805380353264       0.006781969896216539     0.0036171393044301054    0.006756506107182595     0.051441382134453775     0.024313502549587633     0.029738546307873197     -0.002610666723007033    0.002610666723007033     -0.02973854630787321     -0.024313502549587633    -0.051441382134453775
0.16154044366389247       0.006984111876379378     0.0037250064963283633    0.006952767615100094     0.05295431370214421      0.025017866196626742     0.030604274724174093     -0.002667827218656581    0.002667827218656581     -0.03060427472417411     -0.025017866196626742    -0.05295431370214421
0.16166912437931905       0.006989752744194407     0.0037280129124712433    0.006958248226453058     0.05299653713161476      0.02503752615483718      0.030628459656787368     -0.0026694486800097387   0.0026694486800097387    -0.030628459656787385    -0.02503752615483718     -0.05299653713161476
0.16855511976244514       0.0072916083066408375    0.0038888930226803828    0.0072515281040796105    0.05525600809764124      0.026089574871077967     0.031922649961559024     -0.00275621673499568     0.00275621673499568      -0.03192264996155903     -0.026089574871077967    -0.05525600809764124
0.169642367773624         0.007339752367456999     0.003914610686205884     0.007297672354258215     0.05561402621056448      0.02625501674073656      0.03212636209332925      -0.0027673526235012713   0.0027673526235012713    -0.032126362093329267    -0.02625501674073656     -0.05561402621056448
0.17139635343069098       0.007416956000828454     0.003955816688639182     0.007372226304223664     0.05619026728446909      0.026522443281155335     0.03245536715263407      -0.002787543149320256    0.002787543149320256     -0.03245536715263407     -0.026522443281155335    -0.05619026728446909
0.17234654492633578       0.007458752871417828     0.003978070620182277     0.007412600748270971     0.05650212059646635      0.026667109110795104     0.032633696875372764     -0.0027986853897014547   0.0027986853897014547    -0.032633696875372764    -0.026667109110795104    -0.05650212059646635
0.17301641880461716       0.007488389245064378     0.003993865320657027     0.00744093026191072      0.0567220954997427       0.026768538519485244     0.03275890357580061      -0.0028053465955431007   0.0028053465955431007    -0.03275890357580061     -0.026768538519485244    -0.0567220954997427
0.17688788248680687       0.007659395521479166     0.004085033539611659     0.007603992729704824     0.0579898625806126       0.02735228049469597      0.033479661342942696     -0.002842079257026039    0.002842079257026039     -0.0334796613429427      -0.02735228049469597     -0.0579898625806126
0.17716777876768722       0.007671766942549174     0.004091629241770661     0.007615783564351243     0.05808155586781529      0.027394488097618637     0.03353178041719138      -0.0028447126469946936   0.0028447126469946936    -0.03353178041719139     -0.027394488097618637    -0.05808155586781529
0.1779359492475226        0.007705720092729322     0.004109731031749422     0.007648143305179213     0.058333206501423755     0.027510326130506507     0.03367482031092727      -0.0028519399400099943   0.0028519399400099943    -0.03367482031092728     -0.027510326130506507    -0.058333206501423755
0.18042535205747          0.007816170745636519     0.004168664752695568     0.007753071108640085     0.059150620183920075     0.02788593720137405      0.034138631667746715     -0.002873948685200655    0.002873948685200655     -0.03413863166774672     -0.02788593720137405     -0.059150620183920075
0.1825232833178177        0.00790925985948876      0.00421832720164381      0.007841577583134255     0.05983981165644596      0.028202772218490973     0.034529848446583154     -0.0028928090086281248   0.0028928090086281248    -0.03452984844658317     -0.028202772218490973    -0.05983981165644596
0.18345404843334956       0.007950549221691281     0.004240339719203866     0.007880640276427694     0.06014467870670493      0.028342481819939855     0.034702640391481784     -0.002900443504716673    0.002900443504716673     -0.0347026403914818      -0.028342481819939855    -0.06014467870670493
0.1876888328983674        0.008138157546350975     0.004340361830972136     0.00805818413913284      0.0615301371421497       0.028977506956745842     0.035487966156316955     -0.0029353359709130542   0.0029353359709130542    -0.035487966156316955    -0.028977506956745842    -0.0615301371421497
0.1893637905755033        0.008212824519661988     0.004380158626627246     0.008128277748438955     0.06207923591296151      0.02922793783431361      0.0357982841531981       -0.002946986074550165    0.002946986074550165     -0.03579828415319811     -0.02922793783431361     -0.06207923591296151
0.19144290951131662       0.00830534196923219      0.004429466906409969     0.008215026430346519     0.06275919037908034      0.02953782250215163      0.03618238894062059      -0.002961021063691849    0.002961021063691849     -0.036182388940620605    -0.02953782250215163     -0.06275919037908034
0.1922190808990853        0.008339880347960214     0.004447874547881653     0.008247411227417765     0.06301302924923642      0.029653507857395622     0.03632578196194657      -0.002966260570105735    0.002966260570105735     -0.03632578196194658     -0.029653507857395622    -0.06301302924923642