% Model:              Cylinder_slice_potential_3.mph
% Version:            COMSOL 6.2.0.339
% Date:               May 16 2024, 16:03
% Dimension:          1
% Nodes:              742
% Expressions:        11
% Description:        Line graph
% Arc length (m)          Magnetic scalar potential Magnetic scalar potential Magnetic scalar potential Magnetic scalar potential Magnetic scalar potential Magnetic scalar potential Magnetic scalar potential Magnetic scalar potential Magnetic scalar potential Magnetic scalar potential Magnetic scalar potential
0                         0.0019226764891808721    -0.014594233031966292    -2.1801393185545425E-7   -0.03993821817326456     -0.047628924129987996    0.04762718001853321      -0.03993647406180968     0.03993647406180968      -0.04762718001853321     0.047628924129987996     0.03993821817326456
3.0513414842043836E-4     0.001942785982648036     -0.014590371089579916    1.0278575209413058E-5    -0.03984442700260603     -0.04761557093319812     0.04769779953487349      -0.039926655604281304    0.039926655604281304     -0.04769779953487349     0.04761557093319812      0.03984442700260603
5.92737959726535E-4       0.001961740160653122     -0.014586731020596762    2.0172122222654573E-5    -0.039756024251593435    -0.04760298489420587     0.04776436187198717      -0.039917401229374636    0.039917401229374636     -0.04776436187198717     0.04760298489420587      0.039756024251593435
8.698124975925808E-4      0.0019799665677126114    -0.014582808432185358    2.958302449241042E-5     -0.039670160063161215    -0.047590026334011604    0.047826690529950956     -0.039906824259100464    0.039906824259100464     -0.047826690529950956    0.047590026334011604     0.039670160063161215
0.001991678771366471      0.0020538968586246245    -0.014570665766003741    6.787076935303816E-5     -0.039332720503349836    -0.04754830793784829     0.04809127409267265      -0.039875686658174106    0.039875686658174106     -0.04809127409267265     0.04754830793784829      0.039332720503349836
0.004013881818043444      0.0021871587838816087    -0.01454877818713515     1.3688576349052753E-4    -0.03872447393968013     -0.04747310907520653     0.0485681951831308       -0.03981956004760433     0.03981956004760433      -0.0485681951831308      0.04747310907520653      0.03872447393968013
0.010723752448248755      0.0026290872616868827    -0.014476736435853815    3.666645184298614E-4     -0.03670537671046824     -0.04722172575721574     0.050155041904654696     -0.039638692857907096    0.039638692857907096     -0.050155041904654696    0.04722172575721574      0.03670537671046824
0.012241382002274441      0.00272748733250296      -0.014460311178901019    4.2043293297154083E-4    -0.03624422713981097     -0.047154176469822784    0.050517639933595176     -0.03960769060358327     0.03960769060358327      -0.050517639933595176    0.047154176469822784     0.03624422713981097
0.0189656106352288        0.003146695864956452     -0.014372424635472787    6.540334738774502E-4     -0.03420774828099567     -0.046794531740821446    0.0520267995318411       -0.03944001607201522     0.03944001607201522      -0.0520267995318411      0.046794531740821446     0.03420774828099567
0.020462960857257448      0.003240045157999415     -0.014352854073182469    7.060516072403241E-4     -0.033754265474587285    -0.046714446106584914    0.05236285896450756      -0.039402678332509836    0.039402678332509836     -0.05236285896450756     0.046714446106584914     0.033754265474587285
0.021251188639407205      0.0032891311082906024    -0.014342042709270728    7.332825919301901E-4     -0.03351473554351023     -0.04667125997667261     0.052537520712114184     -0.0393809962789517      0.0393809962789517       -0.052537520712114184    0.04667125997667261      0.03351473554351023
0.024663815781480247      0.0035040915349938916    -0.014308651676793011    8.534236106439691E-4     -0.03250407751781538     -0.046520443657790914    0.053347832542942716     -0.039331466402967086    0.039331466402967086     -0.053347832542942716    0.046520443657790914     0.03250407751781538
0.02999029419457771       0.003824042542558014     -0.014245805343202547    0.0010425342778546459    -0.03091919383307304     -0.04621536400330506     0.054555638226142275     -0.039259468055910164    0.039259468055910164     -0.054555638226142275    0.04621536400330506      0.03091919383307304
0.0314220767483138        0.003912136001842815     -0.0142279126536183      0.0010929310035632423    -0.030487741942916313    -0.046136285950287535    0.05487973397879353      -0.039231189971422206    0.039231189971422206     -0.05487973397879353     0.046136285950287535     0.030487741942916313
0.03519127788732247       0.004144581723064665     -0.014181006147623444    0.0012251869360699412    -0.029353107252461246    -0.045931434144719875    0.05573292963327944      -0.03915460274102073     0.03915460274102073      -0.05573292963327944     0.045931434144719875     0.029353107252461246
0.03708624956068607       0.004261444167138379     -0.014157423829546332    0.0012916788096769833    -0.02878266791565432     -0.0458284445842078      0.056161875061623706     -0.039116098393070134    0.039116098393070134     -0.056161875061623706    0.0458284445842078       0.02878266791565432
0.038519339519326956      0.004346855167303721     -0.014141126755828504    0.0013421505267205056    -0.02836106782599606     -0.04574848849521092     0.056485692708974994     -0.03909827203976006     0.03909827203976006      -0.056485692708974994    0.04574848849521092      0.02836106782599606
0.04060703225423323       0.004471279962447336     -0.014117385550891723    0.00141567657186141      -0.027746890440334862    -0.045632010290124175    0.0569574228650155       -0.0390723030152261      0.0390723030152261       -0.0569574228650155      0.045632010290124175     0.027746890440334862
0.046316056255338266      0.004808789243504703     -0.014037149704860386    0.0016192618700232235    -0.02601682314747887     -0.04525198012149765     0.05820607508168349      -0.038970918107664614    0.038970918107664614     -0.05820607508168349     0.04525198012149765      0.02601682314747887
0.05569445479211841       0.00535007473421611      -0.013932458699431282    0.0019586983018453244    -0.02326243342248034     -0.044662732359344745    0.06033231877410739      -0.03893201983724289     0.03893201983724289      -0.06033231877410739     0.044662732359344745     0.02326243342248034
0.05893698432989186       0.005537817642135607     -0.01389772852621407     0.0020758883352816862    -0.022313996953244267    -0.044465267521786665    0.061072374204040186     -0.03892110363549771     0.03892110363549771      -0.061072374204040186    0.044465267521786665     0.022313996953244267
0.061048224175483126      0.005659448973588672     -0.013873731622621586    0.0021519836499332536    -0.021694362320954425    -0.04433215821530907     0.06154802741477515      -0.038910231520420405    0.038910231520420405     -0.06154802741477515     0.04433215821530907      0.021694362320954425
0.061292551714010615      0.005673694427603912     -0.01387050394328105     0.0021609017286625585    -0.021620516059985117    -0.04431529377040073     0.06160250759970125      -0.038907729889285536    0.038907729889285536     -0.06160250759970125     0.04431529377040073      0.021620516059985117
0.06155758887318339       0.005689372710592982     -0.013866889863920576    0.0021706666338798717    -0.021539257635056295    -0.04429674847742819     0.06166208154846721      -0.03890459070609521     0.03890459070609521      -0.06166208154846721     0.04429674847742819      0.021539257635056295
0.06160829957751028       0.005692396372206624     -0.013866360770989097    0.002172512109372347     -0.021524241131064676    -0.04429382661989113     0.06167392349486994      -0.03890433800604341     0.03890433800604341      -0.06167392349486994     0.04429382661989113      0.021524241131064676
0.06217000092841296       0.0057240440073435895    -0.013859346544502878    0.002193376901986623     -0.02135644401087498     -0.04425262004024931     0.06179963525614233      -0.03890345922676792     0.03890345922676792      -0.06179963525614233     0.04425262004024931      0.02135644401087498
0.06238363911291957       0.005736153342618976     -0.013856526460948848    0.002201210743902322     -0.021292429721999316    -0.0442370430924752      0.06184672904369381      -0.038902115673217844    0.038902115673217844     -0.06184672904369381     0.0442370430924752       0.021292429721999316
0.06664377675927957       0.005977624384877657     -0.013800291457163561    0.0023574246011665257    -0.020015927197069277    -0.043926424736579886    0.06278582154591211      -0.03887532400640144     0.03887532400640144      -0.06278582154591211     0.043926424736579886     0.020015927197069277
0.06977405078561605       0.006152101398758001     -0.013771549906969638    0.0024722171020576536    -0.019121578515162312    -0.0437299841101943      0.06350772092665558      -0.03889931533162348     0.03889931533162348      -0.06350772092665558     0.0437299841101943       0.019121578515162312
0.07067889259638752       0.006202448531600825     -0.013759686633000711    0.002505577484013528     -0.018851852899746387    -0.043661647026149664    0.06370626689825795      -0.038896472771854554    0.038896472771854554     -0.06370626689825795     0.043661647026149664     0.018851852899746387
0.07125059793239635       0.006234259312398464     -0.013752191071953652    0.002526655542242519     -0.018681432422093962    -0.043618469671687796    0.063831714009628        -0.03889467676003405     0.03889467676003405      -0.063831714009628       0.043618469671687796     0.018681432422093962
0.07158038004435592       0.006252624798274448     -0.013747530048906782    0.0025389023144512667    -0.0185817312923664      -0.04359223048546418     0.06390344900107438      -0.03889294980797648     0.03889294980797648      -0.06390344900107438     0.04359223048546418      0.0185817312923664
0.07190063802409832       0.0062701579045322565    -0.013744290586378643    0.0025507963517676915    -0.01848937054300066     -0.04357000216112966     0.06397637297527126      -0.03889574135714215     0.03889574135714215      -0.06397637297527126     0.04357000216112966      0.01848937054300066
0.07428901149908634       0.006399903747013229     -0.013718205992385652    0.002639125478292578     -0.017798308569960203    -0.0433979235580131      0.06451092738435378      -0.03891131239630077     0.03891131239630077      -0.06451092738435378     0.0433979235580131       0.017798308569960203
0.0780027708099601        0.006605395493382518     -0.013674962099405916    0.0027773893497994324    -0.016704537912254992    -0.04312611988578504     0.06534523468418058      -0.03892365271065041     0.03892365271065041      -0.06534523468418058     0.04312611988578504      0.016704537912254992
0.0828725571390396        0.006867335422203132     -0.013621523898624411    0.002958663652815955     -0.015295246240203154    -0.04276458792901566     0.06643389715154338      -0.038964555462730754    0.038964555462730754     -0.06643389715154338     0.04276458792901566      0.015295246240203154
0.08531123499002495       0.0069984899107869165    -0.013595105927317358    0.0030493393073103034    -0.01459098073113703     -0.042584940374284674    0.06697965483276717      -0.03898569518961941     0.03898569518961941      -0.06697965483276717     0.042584940374284674     0.01459098073113703
0.08550982541220253       0.007009289229745363     -0.013593123425797401    0.0030567952827038705    -0.014533610687086007    -0.042570767606067435    0.06702512986769847      -0.03898797294871693     0.03898797294871693      -0.06702512986769847     0.042570767606067435     0.014533610687086007
0.08575655773658591       0.007022706498509671     -0.01359066033013172     0.0030660587210873925    -0.01446233310902626     -0.04255315910306492     0.06708162887176412      -0.038990802877725356    0.038990802877725356     -0.06708162887176412     0.04255315910306492      0.01446233310902626
0.08703045010779704       0.007092379486153204     -0.013577566591362783    0.003114233455522299     -0.01409100697969276     -0.042460524924305555    0.067374392568484        -0.03900487462387111     0.03900487462387111      -0.067374392568484       0.042460524924305555     0.01409100697969276
0.09047702230881058       0.007274801117331263     -0.013542107929322877    0.0032439908236431237    -0.013100758258733624    -0.042199962728058635    0.0681518893172037       -0.03905268484787857     0.03905268484787857      -0.0681518893172037      0.042199962728058635     0.013100758258733624
0.09112949961286305       0.007309208247152788     -0.013535127488240272    0.0032685147709548288    -0.012912906886595944    -0.04214973987520706     0.06829785804284576      -0.039061025054234526    0.039061025054234526     -0.06829785804284576     0.04214973987520706      0.012912906886595944
0.09576644046132671       0.0075537283626524515    -0.013485519797374732    0.003442798370321325     -0.01157790918553401     -0.04179282263614377     0.06933520959871445      -0.03912029614810456     0.03912029614810456      -0.06933520959871445     0.04179282263614377      0.01157790918553401
0.09605812940563398       0.0075692847011194836    -0.013482647150009373    0.0034538674074748913    -0.011493902417889605    -0.041771041222367494    0.0694019804821667       -0.03912484167768869     0.03912484167768869      -0.0694019804821667      0.041771041222367494     0.011493902417889605
0.0962588850502094        0.007579637142358299     -0.013480668122722974    0.0034614518282940565    -0.01143692277027611     -0.04175547133970926     0.06944708596606178      -0.03912853739662851     0.03912853739662851      -0.06944708596606178     0.04175547133970926      0.01143692277027611
0.0979027710611625        0.0076644080257259545    -0.013464462873409615    0.003523556798304609     -0.010970345375558518    -0.04162797747846228     0.06981643186489922      -0.039158799761995336    0.039158799761995336     -0.06981643186489922     0.04162797747846228      0.010970345375558518
0.09812097020480964       0.007675694268754086     -0.013462281761836701    0.0035318101110282185    -0.010908216303889075    -0.041610993378905364    0.06986547426713119      -0.039162697192114765    0.039162697192114765     -0.06986547426713119     0.041610993378905364     0.010908216303889075
0.09813499114641365       0.007676423307990261     -0.013462137399047914    0.0035323445797313525    -0.010904187262237824    -0.04160988049419882     0.06986863713204972      -0.03916294390008859     0.03916294390008859      -0.06986863713204972     0.04160988049419882      0.010904187262237824
0.10428674967169106       0.007996292933233519     -0.013398797500649658    0.0037668454066993283    -0.009136425008684642    -0.04112159674161866     0.07125635999521335      -0.03927118826227921     0.03927118826227921      -0.07125635999521335     0.04112159674161866      0.009136425008684642
0.10516907202133019       0.008041448078257084     -0.013388811506955717    0.0038001226658764637    -0.00888304770084715     -0.04104884001387542     0.0714498213408872       -0.039284029027858804    0.039284029027858804     -0.0714498213408872      0.04104884001387542      0.00888304770084715
0.1058363112020182        0.008075036447561709     -0.01338189973483608     0.003825668098781896     -0.008692953914257262    -0.040993099704504044    0.07159844449475927      -0.03929829870451236     0.03929829870451236      -0.07159844449475927     0.040993099704504044     0.008692953914257262
0.11064341987055466       0.008318131026716363     -0.013335625495086826    0.004009956230445162     -0.0073307895100471155   -0.040603313616912516    0.07268296346047387      -0.039410439353608356    0.039410439353608356     -0.07268296346047387     0.040603313616912516     0.0073307895100471155
0.11420736564511495       0.008499058616234402     -0.013301153830704905    0.004146506459336032     -0.006319318422301792    -0.040315552887239356    0.07348760456192768      -0.03949137009699        0.03949137009699         -0.07348760456192768     0.040315552887239356     0.006319318422301792
0.11545161920151573       0.00856230687188893      -0.013288641473291953    0.0041944066094124445    -0.005963684238448229    -0.04021291172600391     0.07376816460130353      -0.03951893711374773     0.03951893711374773      -0.07376816460130353     0.04021291172600391      0.005963684238448229
0.11564106829001425       0.008571937002597603     -0.013286736351386006    0.004201699849382894     -0.005909535651431243    -0.04019728366182161     0.07381088245688484      -0.03952313444649435     0.03952313444649435      -0.07381088245688484     0.04019728366182161      0.005909535651431243
0.11678227996849844       0.008629702002084254     -0.013276854952543013    0.004245874663210731     -0.0055876622006176165   -0.040106470208954595    0.0740734675146405       -0.03955465950630341     0.03955465950630341      -0.0740734675146405      0.040106470208954595     0.0055876622006176165
0.1172520499147031        0.008653523495740313     -0.01327283969411885     0.004264072236169699     -0.005455183146197139    -0.04006927712915835     0.07418185501851601      -0.039567761035554684    0.039567761035554684     -0.07418185501851601     0.04006927712915835      0.005455183146197139
0.11763048915575847       0.008672358603917928     -0.013269341578113826    0.004278773737042119     -0.005348212578337163    -0.04003764699400884     0.07426783689034586      -0.03957840247467406     0.03957840247467406      -0.07426783689034586     0.04003764699400884      0.005348212578337163
0.11891730091657318       0.008736312430752617     -0.013257925946325336    0.004328549741120571     -0.004986954012988491    -0.03993220373599893     0.07456060166496356      -0.03961535194195301     0.03961535194195301      -0.07456060166496356     0.03993220373599893      0.004986954012988491
0.1204984255242243        0.008814893441931568     -0.01324389939101841     0.004389710252172437     -0.004543070280502346    -0.039802644048228586    0.07492032606560817      -0.0396607522978818      0.0396607522978818       -0.07492032606560817     0.039802644048228586     0.004543070280502346
0.12630643148138662       0.00910306744324517      -0.013190178425171704    0.004614193903342559     -0.0029076247756545446   -0.03931989454863519     0.07623344577537572      -0.03982117600239497     0.03982117600239497      -0.07623344577537572     0.03931989454863519      0.0029076247756545446
0.1283450067686105        0.009202958150029727     -0.013175126405911885    0.004694331341259073     -0.002342137552639918    -0.03915397015275879     0.07670862088283142      -0.03989678828271246     0.03989678828271246      -0.07670862088283142     0.03915397015275879      0.002342137552639918
0.13510448580348852       0.009531934348585847     -0.013115936172920416    0.004957088330205656     -4.5558650076692647E-4   -0.038583323895110294    0.07824003053675559      -0.04011229314241216     0.04011229314241216      -0.07824003053675559     0.038583323895110294     4.5558650076692647E-4
0.13533022279905393       0.009542920712814717     -0.013113959478371417    0.004965863262850992     -3.925839580808535E-4    -0.038564266809339706    0.07829117291214768      -0.04011949006088876     0.04011949006088876      -0.07829117291214768     0.038564266809339706     3.925839580808535E-4
0.13556810520150872       0.009554482336009786     -0.013111858735486003    0.004975181187008762     -3.2588678640339016E-4   -0.03854381613044252     0.07834526562651264      -0.04012733628247346     0.04012733628247346      -0.07834526562651264     0.03854381613044252      3.2588678640339016E-4
0.13568772437010157       0.009560183996967866     -0.013110809401539605    0.00497983983473791      -2.9270087173145255E-4   -0.03853343685960289     0.07837215553750622      -0.0401314195496347      0.0401314195496347       -0.07837215553750622     0.03853343685960289      2.9270087173145255E-4
0.13953429416934643       0.009743531173719532     -0.013077066178651347    0.00512964704265499      7.744519821049729E-4     -0.03819967271277312     0.0792368490540131       -0.040262724359134916    0.040262724359134916     -0.0792368490540131      0.03819967271277312      -7.744519821049729E-4
0.1419727658316773        0.009860487940054284     -0.013061181418585949    0.005224858533238194     0.0014368657573034873    -0.03800508600291361     0.07980395426881925      -0.04036200250860205     0.04036200250860205      -0.07980395426881925     0.03800508600291361      -0.0014368657573034873
0.14513869054288955       0.010009026476155813     -0.0130383646939602      0.005348288960785327     0.0022961147135723255    -0.0377399911910509      0.08052630287733359      -0.04049019697271026     0.04049019697271026      -0.08052630287733359     0.0377399911910509       -0.0022961147135723255
0.1497012348745903        0.010225187983146257     -0.013002511470416405    0.0055289990744203125    0.003558837852724546     -0.03734191407986044     0.08157390667522305      -0.040673154742637926    0.040673154742637926     -0.08157390667522305     0.03734191407986044      -0.003558837852724546
0.15015252252171474       0.01024675212808464      -0.012998817761785977    0.005546932298051383     0.0036847801630168816    -0.03730222834932165     0.0816776867337328       -0.040690678221394154    0.040690678221394154     -0.0816776867337328      0.03730222834932165      -0.0036847801630168816
0.1505619105264412        0.010265677944275778     -0.012995591581710512    0.005563038995765348     0.003796737126481403     -0.03726597465062168     0.08177028661674453      -0.04070757483964134     0.04070757483964134      -0.08177028661674453     0.03726597465062168      -0.003796737126481403
0.15746105527258136       0.010588303477999366     -0.012949547061821259    0.005834362200368554     0.005665414572009166     -0.03668779933998826     0.08336269694293678      -0.04100948303093924     0.04100948303093924      -0.08336269694293678     0.03668779933998826      -0.005665414572009166
0.15941691930509705       0.010681080367576718     -0.012937114388714224    0.0059120144526392405    0.00619887537956772      -0.036525446090739114    0.08382156171185312      -0.041097240241546165    0.041097240241546165     -0.08382156171185312     0.036525446090739114     -0.00619887537956772
0.1595499875090215        0.010687392490432143     -0.01293626852547791     0.005917297563105285     0.006235169656851685     -0.03651440030487685     0.0838527808097192       -0.041103210847990554    0.041103210847990554     -0.0838527808097192      0.03651440030487685      -0.006235169656851685
0.16543138432548712       0.01095723794879775      -0.01290067261780388     0.006148481921452871     0.007806385729995334     -0.03602256606519563     0.08521042143681867      -0.0413814696416276      0.0413814696416276       -0.08521042143681867     0.03602256606519563      -0.007806385729995334
0.1674716187218313        0.011050601349786655     -0.012887230433118856    0.006229800484300037     0.008358713337416881     -0.0358436920617297      0.08568209593613008      -0.04147969053698338     0.04147969053698338      -0.08568209593613008     0.0358436920617297       -0.008358713337416881
0.1684843361794226        0.011097625102617175     -0.012880879461831897    0.006270544799556691     0.008634791017965411     -0.035755709392503256    0.08592006778895686      -0.04152956737848808     0.04152956737848808      -0.08592006778895686     0.035755709392503256     -0.008634791017965411
0.16894745249632812       0.01111937620668444      -0.012878533931198411    0.006289169661810141     0.008759829267014211     -0.035717675559723515    0.08603103285420471      -0.04155352802746688     0.04155352802746688      -0.08603103285420471     0.035717675559723515     -0.008759829267014211
0.16969096105300627       0.011153677974945299     -0.012874018102082694    0.006319449676708503     0.00896310035047652      -0.03565161154930464     0.08620720896297274      -0.04159249706319147     0.04159249706319147      -0.08620720896297274     0.03565161154930464      -0.00896310035047652
0.17077114565405282       0.01120363952213407      -0.012868842821996516    0.00636180461309533      0.009247969030659907     -0.035566589057876345    0.08646102596263905      -0.0416464678741027      0.0416464678741027       -0.08646102596263905     0.035566589057876345     -0.009247969030659907
0.17424039136499814       0.011361575351891539     -0.012849342842618261    0.006498526325803381     0.010169227479141812     -0.035277073928424316    0.08726528453485144      -0.0418189831272852      0.0418189831272852       -0.08726528453485144     0.035277073928424316     -0.010169227479141812
0.17456935999059264       0.011376551498632466     -0.012847493771681907    0.00651149085978741      0.010256585121368848     -0.03524962087316099     0.08734154775146033      -0.0418353417569304      0.0418353417569304       -0.08734154775146033     0.03524962087316099      -0.010256585121368848
0.17470561294716389       0.011382734559068172     -0.012846910936085098    0.006516863926161632     0.010292192014527569     -0.03523874622174508     0.08737365763103822      -0.04184271939476544     0.04184271939476544      -0.08737365763103822     0.03523874622174508      -0.010292192014527569
0.1758761774399225        0.011435853927518981     -0.012841903729842327    0.006563024544420316     0.010598094843192234     -0.035145320866883656    0.08764951722224626      -0.04190610151217025     0.04190610151217025      -0.08764951722224626     0.035145320866883656     -0.010598094843192234
0.17789098742475076       0.011527173513667466     -0.012832754252235415    0.006642550438681856     0.011126286025356105     -0.034982408029313725    0.08812281153876864      -0.04201411748409871     0.04201411748409871      -0.08812281153876864     0.034982408029313725     -0.011126286025356105
0.17798230622602457       0.011531313131596986     -0.01283223937680766     0.006646199275528135     0.011150705234883524     -0.03497454729150439     0.08814414149572954      -0.04201888896934152     0.04201888896934152      -0.08814414149572954     0.03497454729150439      -0.011150705234883524
0.18034039120118586       0.011638208652632638     -0.012818943976590716    0.006740421573937721     0.011781271671243997     -0.03477156293928652     0.08869493553078835      -0.04214210092025773     0.04214210092025773      -0.08869493553078835     0.03477156293928652      -0.011781271671243997
0.18109331287255476       0.011672231832652733     -0.012814974220770593    0.006770174557486439     0.011980239232939432     -0.03470868809767147     0.08887008455756304      -0.04218115722695205     0.04218115722695205      -0.08887008455756304     0.03470868809767147      -0.011980239232939432
0.1831412352826019        0.01176488342943326      -0.012806036028911375    0.006851729792721202     0.012518577943017188     -0.03454095577471582     0.08935479411648549      -0.04229526039875238     0.04229526039875238      -0.08935479411648549     0.03454095577471582      -0.012518577943017188
0.18588780004450653       0.011887125063737458     -0.01279440494219492     0.006960484930871156     0.013232975024374781     -0.03431552523057501     0.08999940467754433      -0.04245090442259442     0.04245090442259442      -0.08999940467754433     0.03431552523057501      -0.013232975024374781
0.18611142241177914       0.011897077846945605     -0.012793457951546251    0.0069693396579773486    0.013291140471161852     -0.03429717091662053     0.09005188818043938      -0.042463576792656894    0.042463576792656894     -0.09005188818043938     0.03429717091662053      -0.013291140471161852
0.1863951962800241        0.011909667137096815     -0.012792360023270784    0.006980451211244315     0.013364059049358537     -0.034274609499028684    0.09011821918898327      -0.04247955064059594     0.04247955064059594      -0.09011821918898327     0.034274609499028684     -0.013364059049358537
0.18870892065139827       0.012013652487981846     -0.012783715825930523    0.007070770954962712     0.01395924131802296      -0.03409536863390438     0.09066153627360615      -0.042606926321678694    0.042606926321678694     -0.09066153627360615     0.03409536863390438      -0.01395924131802296
0.1899995138187194        0.012072093175619504     -0.01277864719405885     0.007121986666351117     0.014296191434466924     -0.03399218126801106     0.09096807459882006      -0.04267970189634197     0.04267970189634197      -0.09096807459882006     0.03399218126801106      -0.014296191434466924
0.19188245362237233       0.0121573565255985       -0.012771252200080187    0.00719670897543152      0.014787792352682502     -0.033841633749711456    0.09141530555316368      -0.04278587945076963     0.04278587945076963      -0.09141530555316368     0.033841633749711456     -0.014787792352682502
0.19346794667500966       0.01222814426499903      -0.012764709845455233    0.007259302482495506     0.015199368923614379     -0.03371320813638171     0.09178762799634582      -0.042875050936349635    0.042875050936349635     -0.09178762799634582     0.03371320813638171      -0.015199368923614379
0.1949099211775911        0.012292518588521076     -0.012758473539869059    0.007316800080147144     0.015576816878023543     -0.033593257476060734    0.09212765811723796      -0.04295758376315356     0.04295758376315356      -0.09212765811723796     0.033593257476060734     -0.015576816878023543
0.1955113249111508        0.012319418145440504     -0.01275708131380254     0.007340253947695013     0.01572860814025344      -0.03354906444150855     0.09227109602306871      -0.042993423441306626    0.042993423441306626     -0.09227109602306871     0.03354906444150855      -0.01572860814025344