% Model:              Cylinder_slice_potential_3.mph
% Version:            COMSOL 6.2.0.339
% Date:               May 16 2024, 16:03
% Dimension:          1
% Nodes:              1027
% Expressions:        11
% Description:        Line graph
% Arc length (m)          Magnetic scalar potential Magnetic scalar potential Magnetic scalar potential Magnetic scalar potential Magnetic scalar potential Magnetic scalar potential Magnetic scalar potential Magnetic scalar potential Magnetic scalar potential Magnetic scalar potential Magnetic scalar potential
0                         0.001922676489180872     -0.014594233031966289    -2.1801393185545425E-7   -0.03993821817326457     -0.047628924129987996    0.047627180018533215     -0.039936474061809696    0.039936474061809696     -0.047627180018533215    0.047628924129987996     0.03993821817326457
8.068848102341695E-4      0.0019152110538564328    -0.014592009721829193    4.7977929997794335E-5    -0.03975369533778355     -0.04741453955320922     0.04779836299319164      -0.040137518777765877    0.040137518777765877     -0.04779836299319164     0.04741453955320922      0.03975369533778355
9.651528957997672E-4      0.0019137325259230911    -0.014591399158277799    5.7380885345912064E-5    -0.03971720888160357     -0.04737213898529588     0.04783118606806325      -0.040176255964370834    0.040176255964370834     -0.04783118606806325     0.04737213898529588      0.03971720888160357
0.0011568704041023086     0.0019119866544646193    -0.014590610483578563    6.873786881061861E-5     -0.03967290666656398     -0.047320853284422405    0.04787075623490742      -0.040222809617048896    0.040222809617048896     -0.04787075623490742     0.047320853284422405     0.03967290666656398
0.0013939539862792454     0.0019096608334302962    -0.0145898999921634      8.306397284078837E-5     -0.03961812241826646     -0.0472567657519876      0.047921277534713966     -0.04028263420099275     0.04028263420099275      -0.047921277534713966    0.0472567657519876       0.03961812241826646
0.0016925221254353831     0.0019068477137090729    -0.014589477191571752    1.0097718206206961E-4    -0.03955082741904884     -0.047178218273885096    0.0479860357303817       -0.04035864487554537     0.04035864487554537      -0.0479860357303817      0.047178218273885096     0.03955082741904884
0.0025392289871326        0.0019004403311393334    -0.014588504608502311    1.520629197011218E-4     -0.03935638148442379     -0.046958142808981085    0.048174646166590104     -0.04057288484203274     0.04057288484203274      -0.048174646166590104    0.046958142808981085     0.03935638148442379
0.004539763572419818      0.0018853014548507485    -0.014586206663185578    2.7276441579739315E-4    -0.03889695941666567     -0.046438165236068626    0.04862028056244782      -0.04107907474304479     0.04107907474304479      -0.04862028056244782     0.046438165236068626     0.03889695941666567
0.014171618317210019      0.0018116003289476148    -0.014574209786564742    8.536310133807157E-4     -0.03668490464827612     -0.04393130596406655     0.05076035407111233      -0.04351395275532182     0.04351395275532182      -0.05076035407111233     0.04393130596406655      0.03668490464827612
0.014563097735960154      0.0018085386418408918    -0.01457435767447434     8.77215796193025E-4      -0.036597132554969124    -0.04383128712233266     0.05084901349187692      -0.043614858924513306    0.043614858924513306     -0.05084901349187692     0.04383128712233266      0.036597132554969124
0.015489919446633638      0.0017986058620406955    -0.014572434709614873    9.332970049241477E-4     -0.03638690438506662     -0.04358132783322938     0.05104770387262262      -0.04385328042445978     0.04385328042445978      -0.05104770387262262     0.04358132783322938      0.03638690438506662
0.019631452759022634      0.0017542209086527948    -0.014563841877862737    0.0011838977315625104    -0.03544749289003257     -0.042464376524643715    0.051935558377143864     -0.04491867474253261     0.04491867474253261      -0.051935558377143864    0.042464376524643715     0.03544749289003257
0.023375161560086254      0.0017286406022825143    -0.01455296487533814     0.0014158018374556929    -0.034538406071626615    -0.041452968480756636    0.05277938318040225      -0.045864820771272116    0.045864820771272116     -0.05277938318040225     0.041452968480756636     0.034538406071626615
0.027223168838161588      0.001698287983483932     -0.014563631909475737    0.001651224536308764     -0.033689421616224284    -0.040482573550159974    0.05369236984063014      -0.04689921790669435     0.04689921790669435      -0.05369236984063014     0.040482573550159974     0.033689421616224284
0.03194309925994343       0.0016600224614240397    -0.01456309404650958     0.0019460479704116705    -0.032585045335033966    -0.03922513518073009     0.0547935189440235       -0.048153429098327274    0.048153429098327274     -0.0547935189440235      0.03922513518073009      0.032585045335033966
0.03621892121268392       0.0016330116313206988    -0.014567504312046252    0.0022160656271410346    -0.03157222716493321     -0.03810427369021598     0.05583279870734428      -0.049300752182061425    0.049300752182061425     -0.05583279870734428     0.03810427369021598      0.03157222716493321
0.039883239940363024      0.0016033513046928086    -0.014557834218521033    0.0024450908174430633    -0.03068643677640521     -0.03709984199517643     0.05666056853472095      -0.050247163315949646    0.050247163315949646     -0.05666056853472095     0.03709984199517643      0.03068643677640521
0.04482511595399167       0.001570274849538102     -0.014562015032964969    0.0027605908526279472    -0.029503131989306906    -0.03578423138745931     0.05786895820848287      -0.051587858810330386    0.051587858810330386     -0.05786895820848287     0.03578423138745931      0.029503131989306906
0.04704769850231917       0.0015531375787564408    -0.014564468121059198    0.0029015722973297093    -0.028980840016345866    -0.03519339033137163     0.058405968710009276     -0.05219341839498345     0.05219341839498345      -0.058405968710009276    0.03519339033137163      0.028980840016345866
0.05254331104256444       0.0015148369566288233    -0.014570050041185209    0.0032497433789399075    -0.027681502694538344    -0.03374085052105364     0.059738797552572866     -0.0536794497260575      0.0536794497260575       -0.059738797552572866    0.03374085052105364      0.027681502694538344
0.05361002775214569       0.0015044492324441795    -0.014571654857013118    0.0033170184979218597    -0.027437992114463544    -0.033455789044240264    0.05999193702761511      -0.053974140097838325    0.053974140097838325     -0.05999193702761511     0.033455789044240264     0.027437992114463544
0.056755638162470964      0.0014800138099146703    -0.014581114444581954    0.0035193843075975594    -0.02670577848352627     -0.03262583372318495     0.06078090818396539      -0.05486085294430663     0.05486085294430663      -0.06078090818396539     0.03262583372318495      0.02670577848352627
0.056908384832069954      0.0014787556877616092    -0.014581321209502134    0.003529195521720079     -0.02666967016610286     -0.03258469291714929     0.06081825709090989      -0.05490323433986337     0.05490323433986337      -0.06081825709090989     0.03258469291714929      0.02666967016610286
0.05736546237840276       0.0014753221575217518    -0.014582908281288854    0.003559047658530005     -0.02656188989470304     -0.03246317852479005     0.060935559793030045     -0.05503427116294297     0.05503427116294297      -0.060935559793030045    0.03246317852479005      0.02656188989470304
0.06097180264404811       0.0014506389690933563    -0.014594217064478563    0.0037931415548105346    -0.025708807036006857    -0.03151136291238028     0.061856495350864515     -0.05605393947449101     0.05605393947449101      -0.061856495350864515    0.03151136291238028      0.025708807036006857
0.06807224367977187       0.001406787381025712     -0.0146093256768757      0.004250075942497668     -0.024014098498585087    -0.02964124802268791     0.06364185556266926      -0.05801470603856629     0.05801470603856629      -0.06364185556266926     0.02964124802268791      0.024014098498585087
0.07165024745403337       0.0013860717765110694    -0.014624406198037825    0.004483929467752765     -0.02316535717008038     -0.02870964427612463     0.06458108001814675      -0.05903679291210236     0.05903679291210236      -0.06458108001814675     0.02870964427612463      0.02316535717008038
0.07636505023222494       0.001357195183640479     -0.014636140311824572    0.004791844155949954     -0.022026653944393015    -0.0274554346789549      0.06579018792655456      -0.060361407191992525    0.060361407191992525     -0.06579018792655456     0.0274554346789549       0.022026653944393015
0.07741961494698454       0.0013496965786729779    -0.014640263637334614    0.0048615322923197465    -0.021775268585378975    -0.027174054900070854    0.06606631323862885      -0.06066752692393683     0.06066752692393683      -0.06606631323862885     0.027174054900070854     0.021775268585378975
0.07923610252747378       0.0013367802326168091    -0.014647366064975593    0.004981570097919968     -0.021342257338013357    -0.02668937826848056     0.06654193905184035      -0.06119481812137298     0.06119481812137298      -0.06654193905184035     0.02668937826848056      0.021342257338013357
0.08654485674559574       0.0012955846559087778    -0.014682026521033856    0.005466775525105755     -0.019587808150861023    -0.0247701467744961      0.0685043509753422       -0.063322012351707       0.063322012351707        -0.0685043509753422      0.0247701467744961       0.019587808150861023
0.08774256147226457       0.0012884197787685684    -0.014685465731435362    0.00554611701433683      -0.019295089579421654    -0.024448768694495894    0.06881770480919058      -0.06366402569411622     0.06366402569411622      -0.06881770480919058     0.024448768694495894     0.019295089579421654
0.0901823373182355        0.0012723644056119754    -0.014698097549440927    0.005709334782509439     -0.018712224707061107    -0.023801682329508973    0.06947636058958452      -0.06438690296713655     0.06438690296713655      -0.06947636058958452     0.023801682329508973     0.018712224707061107
0.09039996137517568       0.0012709322923103391    -0.014699224287163757    0.005723893543279656     -0.018660234103751998    -0.02374396327299332     0.06953511161923061      -0.06445138244998917     0.06445138244998917      -0.06953511161923061     0.02374396327299332      0.018660234103751998
0.09161703377593645       0.0012642584616138967    -0.014705320167034866    0.005805796658150344     -0.018364256945275458    -0.023421290791731008    0.06986766405693383      -0.06481063021047814     0.06481063021047814      -0.06986766405693383     0.023421290791731008     0.018364256945275458
0.09639235136446786       0.0012389878818771835    -0.014731241027768205    0.006124694300893949     -0.017216970115974485    -0.022172921643483175    0.07117047605063483      -0.06621452452312601     0.06621452452312601      -0.07117047605063483     0.022172921643483175     0.017216970115974485
0.09658096398566032       0.0012379897597219905    -0.01473226483433098     0.006137289928132318     -0.017171655271019715    -0.022123614309907638    0.07122193373496624      -0.0662699746960782      0.0662699746960782       -0.07122193373496624     0.022123614309907638     0.017171655271019715
0.0981548825627524        0.0012279015184874106    -0.014741870180755085    0.006243648422718354     -0.01679521381441705     -0.02170681988836665     0.07165600727011355      -0.06674440119616382     0.06674440119616382      -0.07165600727011355     0.02170681988836665      0.01679521381441705
0.10156382022287758       0.0012073970122453948    -0.014759718208445599    0.006472783773320561     -0.015973225507563787    -0.020802813556545324    0.0725850837431099       -0.06775549569412821     0.06775549569412821      -0.0725850837431099      0.020802813556545324     0.015973225507563787
0.10456348895523745       0.001194048234273566     -0.014779722360202401    0.006674945016733225     -0.015251290545127198    -0.020027483482221414    0.0734270436160873       -0.06865085067899293     0.06865085067899293      -0.0734270436160873      0.020027483482221414     0.015251290545127198
0.10818046487541047       0.0011753043253902513    -0.014800828291095613    0.006919984338887424     -0.014371938866956657    -0.019073156168517617    0.0744330308796171       -0.06973181357805598     0.06973181357805598      -0.0744330308796171      0.019073156168517617     0.014371938866956657
0.11268352073398528       0.001146935424911932     -0.014830143066640877    0.0072286337461450675    -0.013282023365518529    -0.017869765065166215    0.07569883503432685      -0.07111109333467901     0.07111109333467901      -0.07569883503432685     0.017869765065166215     0.013282023365518529
0.11272767907057948       0.0011466572308376248    -0.01483043053625404     0.007231660456193385     -0.013271335322313354    -0.01785796424566381     0.075711247895211        -0.07112461897186038     0.07112461897186038      -0.075711247895211       0.01785796424566381      0.013271335322313354
0.1134322494103298        0.0011433210335957144    -0.014836027011688816    0.007280079006805062     -0.013101122940654797    -0.01767440707503761     0.07591503912947822      -0.07134175499509525     0.07134175499509525      -0.07591503912947822     0.01767440707503761      0.013101122940654797
0.11346614957774934       0.0011431612605071221    -0.014836275918677283    0.007282409043164324     -0.013092869062360334    -0.017665514104388776    0.07592478644970348      -0.07135214140767487     0.07135214140767487      -0.07592478644970348     0.017665514104388776     0.013092869062360334
0.11482458161618642       0.0011367589062137608    -0.01484625000592997     0.007375777196836587     -0.012762123418016058    -0.01730915904287106     0.07631537661756385      -0.0717683409927087      0.0717683409927087       -0.07631537661756385     0.01730915904287106      0.012762123418016058
0.11504653208141508       0.0011360946694238443    -0.014847901495459092    0.007390943412248897     -0.01270774149853402     -0.017252120176229353    0.07637966747422062      -0.07183528879652515     0.07183528879652515      -0.07637966747422062     0.017252120176229353     0.01270774149853402
0.11640590042344455       0.0011320264532888003    -0.014858016286526408    0.00748383113419466      -0.012374671416223008    -0.016902777229378163    0.07677342630293554      -0.07224532048978026     0.07224532048978026      -0.07677342630293554     0.016902777229378163     0.012374671416223008
0.11972160454051492       0.0011129685495672114    -0.014879154869501962    0.007712995752166852     -0.011559544500704094    -0.016011418698972896    0.07771538471630778      -0.07326351051803887     0.07326351051803887      -0.07771538471630778     0.016011418698972896     0.011559544500704094
0.11982254380297135       0.0011123883739309957    -0.01487979838680616     0.007719972161008681     -0.011534729768521792    -0.01598428326424573     0.07774406055231525      -0.07329450705659118     0.07329450705659118      -0.07774406055231525     0.01598428326424573      0.011534729768521792
0.12036582353190073       0.0011091331734527261    -0.014883676210078599    0.007757692875723877     -0.011401990780434863    -0.015838523474245726    0.07790006648003682      -0.07346353378622583     0.07346353378622583      -0.07790006648003682     0.015838523474245726     0.011401990780434863
0.12046310478615221       0.0011086272129413209    -0.014884360706136714    0.007764447491040558     -0.01137803772836529     -0.01581254658013053     0.07792812650845507      -0.07349361765668971     0.07349361765668971      -0.07792812650845507     0.01581254658013053      0.01137803772836529
0.12533191678677102       0.0010833044862893733    -0.014918618926260962    0.008102508018389387     -0.010179215732646622    -0.014512433677804075    0.07933249782491925      -0.07499927987976168     0.07499927987976168      -0.07933249782491925     0.014512433677804075     0.010179215732646622
0.12920768273294253       0.0010656915691553527    -0.014951699281555122    0.008372196478597925     -0.009234928791962992    -0.013497695068584361    0.08047526689736784      -0.07621250062074635     0.07621250062074635      -0.08047526689736784     0.013497695068584361     0.009234928791962992
0.13106667855807222       0.0010574107264462254    -0.014966274591872449    0.00850067892185001      -0.008781286635324879    -0.013010929541109736    0.08101636091590991      -0.0767867180101249      0.0767867180101249       -0.08101636091590991     0.013010929541109736     0.008781286635324879
0.13448137249591138       0.0010397434053946847    -0.014992931151560106    0.008740360807347716     -0.00793786341450012     -0.012096837036078813    0.08201972349486061      -0.07786074987328177     0.07786074987328177      -0.08201972349486061     0.012096837036078813     0.00793786341450012
0.13498109587367535       0.001037157881329385     -0.014996832205736315    0.00877543705241978      -0.007814432644871083    -0.011963064170188577    0.08216656058954691      -0.07801792906422926     0.07801792906422926      -0.08216656058954691     0.011963064170188577     0.007814432644871083
0.13533083191469777       0.0010353659815826753    -0.014999325115533417    0.008800324217450289     -0.007725946513633774    -0.01186741043996443     0.08227000417956683      -0.07812854025323604     0.07812854025323604      -0.08227000417956683     0.01186741043996443      0.007725946513633774
0.13671063223584978       0.0010292662533536879    -0.015011744259493556    0.00889799148106591      -0.007384734347509675    -0.01150179936092438     0.08268573120945175      -0.07856866619603688     0.07856866619603688      -0.08268573120945175     0.01150179936092438      0.007384734347509675
0.14380334022718821       9.96871207226962E-4      -0.015076055384578263    0.009399063977373803     -0.005638167829785681    -0.009625652658693482    0.08481816447768398      -0.08083067964877601     0.08083067964877601      -0.08481816447768398     0.009625652658693482     0.005638167829785681
0.1445515142809131        9.930619838082956E-4     -0.015082348452390319    0.00945232738851987      -0.005451611835474903    -0.009423859770708039    0.0850424788788671       -0.08107023094363378     0.08107023094363378      -0.0850424788788671      0.009423859770708039     0.005451611835474903
0.14622980778932626       9.850826255153049E-4     -0.015099129098058923    0.009572115004743064     -0.005038762024173921    -0.008979092526235095    0.0855560125641797       -0.08161568206211836     0.08161568206211836      -0.0855560125641797      0.008979092526235095     0.005038762024173921
0.14877415418705664       9.740260058916298E-4     -0.01512538953148026     0.009753946039728083     -0.004412332423745216    -0.008308436447311688    0.08634000476513642      -0.08244390074156979     0.08244390074156979      -0.08634000476513642     0.008308436447311688     0.004412332423745216
0.14890770525686478       9.734456511960108E-4     -0.015126767924367396    0.009763490231221911     -0.004379451545822549    -0.008273234150606547    0.08638115600038193      -0.08248737339559775     0.08248737339559775      -0.08638115600038193     0.008273234150606547     0.004379451545822549
0.15836716135343182       9.339451018053713E-4     -0.015221555614527397    0.01044148706034217      -0.0020308283986027967   -0.0057666088058242375   0.08929850528856169      -0.08556272488134006     0.08556272488134006      -0.08929850528856169     0.0057666088058242375    0.0020308283986027967
0.16138911081350324       9.203515761106368E-4     -0.015252974371100507    0.010659989377684528     -0.0012782624503421612   -0.004959668754784663    0.09023958377626098      -0.08655817747181829     0.08655817747181829      -0.09023958377626098     0.004959668754784663     0.0012782624503421612
0.1619115424013693        9.18001541039822E-4      -0.015258406014184597    0.010697763838875843     -0.0011481596049708023   -0.004820165769130045    0.0904022764801369       -0.08673027031597745     0.08673027031597745      -0.0904022764801369      0.004820165769130045     0.0011481596049708023
0.16496424944260712       9.052010053768598E-4     -0.015288373634954815    0.010919741933753672     -3.7575115909606414E-4   -0.003996555180603456    0.09135449065063293      -0.08773368662912537     0.08773368662912537      -0.09135449065063293     0.003996555180603456     3.7575115909606414E-4
0.16681821510292524       8.971063017803237E-4     -0.015309654860078492    0.011054460813780826     8.309127844845525E-5     -0.003505333928672792    0.0919410204389195       -0.0883525952317981      0.0883525952317981       -0.0919410204389195      0.003505333928672792     -8.309127844845525E-5
0.1672247566987365        8.953312776856541E-4     -0.015314321453105417    0.011084002260876854     1.837072395624482E-4     -0.0033976178711801206   0.09206963595819503      -0.08848831084745232     0.08848831084745232      -0.09206963595819503     0.0033976178711801206    -1.837072395624482E-4
0.17325061605238512       8.718643230721875E-4     -0.015386460974428267    0.01152685267498747      0.0016917564228094185    -0.0017957008694792862   0.09401052226937912      -0.09052306497709028     0.09052306497709028      -0.09401052226937912     0.0017957008694792862    -0.0016917564228094185
0.17528345273742454       8.636713990260466E-4     -0.015409213870410398    0.011677797517817803     0.002210891258092071     -0.0012437943380120718   0.09466617448055456      -0.09121148888445031     0.09121148888445031      -0.09466617448055456     0.0012437943380120718    -0.002210891258092071
0.17603972532344048       8.604925794766689E-4     -0.015418935531562487    0.011733915508701877     0.0023998405990733485    -0.0010421297188332838   0.09491345378844837      -0.09147148347054163     0.09147148347054163      -0.09491345378844837     0.0010421297188332838    -0.0023998405990733485
0.17717515251221827       8.556751857541546E-4     -0.01543237557460321     0.011817980170917137     0.002686144331367178     -7.365564116493968E-4    0.09528039777898656      -0.09185769703596985     0.09185769703596985      -0.09528039777898656     7.365564116493968E-4     -0.002686144331367178
0.17987944300191291       8.454772482811464E-4     -0.01546571917987527     0.01202043505488136      0.0033755371764618673    -6.371816662677828E-6    0.0961698522557136       -0.09278794326258893     0.09278794326258893      -0.0961698522557136      6.371816662677828E-6     -0.0033755371764618673
0.18560265603224207       8.241816847076205E-4     -0.015535229795883348    0.012445354210060117     0.004824090822005609     0.0015273640831751645    0.09803546959730584      -0.09473874285847525     0.09473874285847525      -0.09803546959730584     -0.0015273640831751645   -0.004824090822005609
0.186691935114937         8.200132917499581E-4     -0.01555049325909194     0.012526720612510879     0.0050954292562675535    0.0018153760892677582    0.09839838881081935      -0.09511833564381938     0.09511833564381938      -0.09839838881081935     -0.0018153760892677582   -0.0050954292562675535
0.18717282190767645       8.18338907009895E-4      -0.015557418788724955    0.012562492680875689     0.005214392171347624     0.0019410365433080807    0.09855890490369751      -0.0952855492756578      0.0952855492756578       -0.09855890490369751     -0.0019410365433080807   -0.005214392171347624
0.18894870878629744       8.119872735609149E-4     -0.015580024724528732    0.012694708799383433     0.005662735571069321     0.0024147864768257004    0.09914288391824184      -0.09589493482399808     0.09589493482399808      -0.09914288391824184     -0.0024147864768257004   -0.005662735571069321
0.19001303430606536       8.0809141682109E-4       -0.015594025434407122    0.012775633106106972     0.005936638954848654     0.0027042732875643327    0.09950079156129152      -0.09626842589400705     0.09626842589400705      -0.09950079156129152     -0.0027042732875643327   -0.005936638954848654
0.19355414066181761       7.951295524231552E-4     -0.015640607050477196    0.013044875524475412     0.006847940051316339     0.003667421841623757     0.10069158235417963      -0.0975110641444869      0.0975110641444869       -0.10069158235417963     -0.003667421841623757    -0.006847940051316339
0.19380915415315939       7.941659077086583E-4     -0.015644324535898504    0.013064434984303822     0.006913098144937072     0.0037364345141024775    0.10077904536032818      -0.09760238172949345     0.09760238172949345      -0.10077904536032818     -0.0037364345141024775   -0.006913098144937072
0.1946083069019345        7.914294243330063E-4     -0.015656438103995       0.013124577099662079     0.0071118529353293184    0.003946135237997333     0.1010504815592994       -0.09788476386196726     0.09788476386196726      -0.1010504815592994      -0.003946135237997333    -0.0071118529353293184
0.19616513471256075       7.860707718922286E-4     -0.015680203903553708    0.013241923300078482     0.007499223033437251     0.004354939945868378     0.10158044645475957      -0.09843616336719055     0.09843616336719055      -0.10158044645475957     -0.004354939945868378    -0.007499223033437251
0.19650339498170324       7.849837227687093E-4     -0.015685018106697212    0.01326776999918734      0.007585993122195116     0.0044460582311203175    0.10169610176237846      -0.09855616687130354     0.09855616687130354      -0.10169610176237846     -0.0044460582311203175   -0.007585993122195116
0.1974948169082009        7.815101706051266E-4     -0.015699750024563506    0.013343976854456402     0.007839677685345318     0.004713637002924852     0.10203817783272642      -0.09891213715030585     0.09891213715030585      -0.10203817783272642     -0.004713637002924852    -0.007839677685345318
0.19991963709550073       7.730145551836996E-4     -0.01573578135581117     0.013530363614854017     0.008460139502349934     0.005368081281615174     0.10287482763721703      -0.09978276941648215     0.09978276941648215      -0.10287482763721703     -0.005368081281615174    -0.008460139502349934
0.20270450756869038       7.631873254464953E-4     -0.015773210801581568    0.013743576176649275     0.009181046952745365     0.006128297650959419     0.10382031176223484      -0.10076756246044881     0.10076756246044881      -0.10382031176223484     -0.006128297650959419    -0.009181046952745365
0.2057793962990693        7.527908141744693E-4     -0.015817515604097485    0.013983115826969431     0.009985498123934169     0.006974334867236323     0.10489059174851915      -0.10187942849182124     0.10187942849182124      -0.10489059174851915     -0.006974334867236323    -0.009985498123934169
0.20658663436627006       7.499197752782788E-4     -0.015829563404069154    0.014046101840215422     0.01019555669921075      0.007195877598097663     0.10517293712362574      -0.10217325802251259     0.10217325802251259      -0.10517293712362574     -0.007195877598097663    -0.01019555669921075
0.2091627516442605        7.413211282210378E-4     -0.015870350248755532    0.01424453000489562      0.010849711529757928     0.007884427016873807     0.10607181302229118      -0.103106528509407       0.103106528509407        -0.10607181302229118     -0.007884427016873807    -0.010849711529757928
0.21101074716759632       7.354257612432204E-4     -0.01590139839641331     0.014389351720119258     0.011324063213723527     0.008382360168750679     0.10673245359220342      -0.1037907505472305      0.1037907505472305       -0.10673245359220342     -0.008382360168750679    -0.011324063213723527
0.2125492482833083        7.305673870214226E-4     -0.015926064670824285    0.014508564918347672     0.011717200434960651     0.008794930886874993     0.1072735884599064       -0.10435131891182065     0.10435131891182065      -0.1072735884599064      -0.008794930886874993    -0.011717200434960651
0.2150112423899797        7.226433764976865E-4     -0.015963953911787933    0.014703177627064629     0.012366135525890058     0.009475562019899348     0.10814985899661766      -0.10525928549062687     0.10525928549062687      -0.10814985899661766     -0.009475562019899348    -0.012366135525890058
0.2160024660063445        7.194530900765423E-4     -0.015979208501694358    0.014781530663086222     0.012627403327414872     0.00974959096710874      0.10850265433758101      -0.10562484197727479     0.10562484197727479      -0.10850265433758101     -0.00974959096710874     -0.012627403327414872
0.21733782645598118       7.147811015525793E-4     -0.016000076680935046    0.014887650377682648     0.012979933671030562     0.010120809264820287     0.10898039375664083      -0.10612126935043042     0.10612126935043042      -0.10898039375664083     -0.010120809264820287    -0.012979933671030562
0.21818125611137312       7.118391495990695E-4     -0.016014407438397837    0.01495493635905394      0.01320020142022035      0.010352844821824112     0.10928664605060735      -0.106439289452211       0.106439289452211        -0.10928664605060735     -0.010352844821824112    -0.01320020142022035
0.21933452214083257       7.083369728453493E-4     -0.016034421230542394    0.015046397191967022     0.013498999021931555     0.010665651130550197     0.10970552640518591      -0.10687217851380443     0.10687217851380443      -0.10970552640518591     -0.010665651130550197    -0.013498999021931555
0.22158211593163368       7.013829022883075E-4     -0.01607176255127164     0.015225320329246709     0.014088759467748495     0.0112832278585953       0.11051933477537833      -0.10771380316622503     0.10771380316622503      -0.11051933477537833     -0.0112832278585953      -0.014088759467748495