% Model:              Cylinder_slice_potential.mph
% Version:            COMSOL 6.2.0.339
% Date:               May 8 2024, 04:47
% Dimension:          1
% Nodes:              745
% Expressions:        11
% Description:        Line graph
% Arc length (m)          Magnetic scalar potential Magnetic scalar potential Magnetic scalar potential Magnetic scalar potential Magnetic scalar potential Magnetic scalar potential Magnetic scalar potential Magnetic scalar potential Magnetic scalar potential Magnetic scalar potential Magnetic scalar potential
0                         -0.005222598368961525    -0.0048487583466960416   -1.6846776895139262E-7   -0.024992145649087       -0.0041017521732408975   0.0041004044310892765    -0.024990797906935366    0.024990797906935366     -0.0041004044310892765   0.0041017521732408975    0.024992145649087
0.002334462051658475      -0.005207622899421983    -0.004895832460890528    9.487075810503768E-6     -0.025064794878273552    -0.004234303280585619    0.004310199887069641     -0.02514069148475756     0.02514069148475756      -0.004310199887069641    0.004234303280585619     0.025064794878273552
0.0024873227722005597     -0.005206664496672267    -0.004899246159809027    1.0141381087752992E-5    -0.025070501948420622    -0.004243843961731552    0.0043249750104335655    -0.025151632997122617    0.025151632997122617     -0.0043249750104335655   0.004243843961731552     0.025070501948420622
0.0027408282222895976     -0.005204985745577036    -0.004904366655499075    1.1319182871888991E-5    -0.025077794726163758    -0.004257851743855616    0.004348405206830718     -0.025168348189138847    0.025168348189138847     -0.004348405206830718    0.004257851743855616     0.025077794726163758
0.006974390529687038      -0.005178381966294261    -0.004993786610758156    2.927265085288454E-5     -0.02522103316145147     -0.004507505296274427    0.004741686503097493     -0.025455214368274526    0.025455214368274526     -0.004741686503097493    0.004507505296274427     0.02522103316145147
0.00829773514981057       -0.005168164995705269    -0.005020798677475752    3.493394418793368E-5     -0.025258990247086086    -0.004586330264265005    0.004865801817768465     -0.025538461800589524    0.025538461800589524     -0.004865801817768465    0.004586330264265005     0.025258990247086086
0.01000300606870017       -0.005153979778739352    -0.005057872496525163    4.089121157674618E-5     -0.025318012200747246    -0.004702093085789828    0.0050292227784037875    -0.02564514189336118     0.02564514189336118      -0.0050292227784037875   0.004702093085789828     0.025318012200747246
0.011374931184503731      -0.005141748908593639    -0.005084900859176537    4.641049878060891E-5     -0.02535255839959449     -0.0047855627652199275   0.005156846755464789     -0.025723842389839328    0.025723842389839328     -0.005156846755464789    0.0047855627652199275    0.02535255839959449
0.012523452455911428      -0.005132356820027157    -0.005109149659295367    5.1242990220864136E-5    -0.025387190657056996    -0.004857763376948359    0.005267707298715264     -0.02579713457882387     0.02579713457882387      -0.005267707298715264    0.004857763376948359     0.025387190657056996
0.014191316592077983      -0.0051185757694487575   -0.0051436676253338864   5.880470897300383E-5     -0.025432935579007197    -0.004958632501212159    0.005429070172996179     -0.025903373250791187    0.025903373250791187     -0.005429070172996179    0.004958632501212159     0.025432935579007197
0.015720401637605942      -0.005105359489667024    -0.005175675465858277    6.548417273986508E-5     -0.025475808685949453    -0.0050543707272813505   0.005578244109200261     -0.02599968206786834     0.02599968206786834      -0.005578244109200261    0.0050543707272813505    0.025475808685949453
0.018174561456466107      -0.0050852533484628815   -0.005225702194305617    7.620220413982547E-5     -0.02554280446328335     -0.005201791069431816    0.005811408702550409     -0.026152422096401916    0.026152422096401916     -0.005811408702550409    0.005201791069431816     0.02554280446328335
0.018421571961677458      -0.005083315753457984    -0.005230988714266209    7.723645218599975E-5     -0.025550651840970634    -0.005217388827138689    0.0058352804446266775    -0.026168543458458593    0.026168543458458593     -0.0058352804446266775   0.005217388827138689     0.025550651840970634
0.019540004958086835      -0.005074542563081727    -0.005254925422363075    8.19193993356503E-5      -0.025586183795910107    -0.005288013543583195    0.005943368738268387     -0.02624153899059528     0.02624153899059528      -0.005943368738268387    0.005288013543583195     0.025586183795910107
0.020109169283305178      -0.005069401783377683    -0.005266412305773236    8.439726087642882E-5     -0.025600451440569393    -0.005322844307058653    0.005998022394070073     -0.026275629527580793    0.026275629527580793     -0.005998022394070073    0.005322844307058653     0.025600451440569393
0.02178012374771993       -0.005054309465717491    -0.005300135535192188    9.167177479150454E-5     -0.02564233843784556     -0.005425100574975595    0.00615847477330762      -0.026375712636177568    0.026375712636177568     -0.00615847477330762     0.005425100574975595     0.02564233843784556
0.023706273807059284      -0.005033754578582124    -0.005338942102720101    9.962024578809541E-5     -0.025685854482172202    -0.0055508361678437024   0.006347798134148454     -0.026482816448476935    0.026482816448476935     -0.006347798134148454    0.0055508361678437024    0.025685854482172202
0.024888693324095698      -0.0050225040236207075   -0.005364342168445908    1.0465660621408835E-4    -0.02571940812772281     -0.0056293920332399815   0.006466644882952675     -0.02655666097743549     0.02655666097743549      -0.006466644882952675    0.0056293920332399815    0.02571940812772281
0.025972726466745054      -0.005010901798816251    -0.0053863062456086346   1.0945433709795671E-4    -0.025742904986066607    -0.005699297790801607    0.006574932487585248     -0.02661853968285023     0.02661853968285023      -0.006574932487585248    0.005699297790801607     0.025742904986066607
0.03085988843543577       -0.004958217089507398    -0.0054826899556255655   1.3069605442761966E-4    -0.02584171982818104     -0.006008851470151452    0.007054419905572396     -0.026887288263601976    0.026887288263601976     -0.007054419905572396    0.006008851470151452     0.02584171982818104
0.03781024339643432       -0.004883290693971617    -0.005619763578592699    1.6090529986867146E-4    -0.025982250924246667    -0.006449088148360203    0.007736330547309563     -0.027269493323196017    0.027269493323196017     -0.007736330547309563    0.006449088148360203     0.025982250924246667
0.038228107219727775      -0.00487820350007867     -0.005628074746149523    1.626716601017727E-4     -0.025989944598198842    -0.006477130597884167    0.007778503878698337     -0.027291317879013       0.027291317879013        -0.007778503878698337    0.006477130597884167     0.025989944598198842
0.04089078489125658       -0.004846942804135801    -0.005681436550477722    1.742622098109946E-4     -0.026041146420460813    -0.0066533752039176115   0.008047472882405558     -0.02743524409894875     0.02743524409894875      -0.008047472882405558    0.0066533752039176115    0.026041146420460813
0.041575371813028346      -0.004837804411961355    -0.005695183200388572    1.7718724591408294E-4    -0.02605240944143212     -0.0067011917935867      0.008118689760899354     -0.027469907408744762    0.027469907408744762     -0.008118689760899354    0.0067011917935867       0.02605240944143212
0.043068471497785664      -0.004818475706575281    -0.005724108485454667    1.8380035902380994E-4    -0.026074075433419348    -0.006800172607118226    0.008270575479308694     -0.027544478305609806    0.027544478305609806     -0.008270575479308694    0.006800172607118226     0.026074075433419348
0.04493835772186236       -0.004794269365699566    -0.005760333121106755    1.92082303778322E-4      -0.02610120887960613     -0.00692413141680787     0.008460789847034435     -0.027637867309832684    0.027637867309832684     -0.008460789847034435    0.00692413141680787      0.02610120887960613
0.04650899554543525       -0.0047741546131983      -0.005789263449134798    1.9922316043421962E-4    -0.026119206932064137    -0.007022588479270941    0.008616373762744687     -0.02771299221553787     0.02771299221553787      -0.008616373762744687    0.007022588479270941     0.026119206932064137
0.04769160088109673       -0.00475900929243976     -0.005811046421488395    2.0459983929405252E-4    -0.026132758492168513    -0.00709672132240948     0.008733520036761887     -0.027769557206520912    0.027769557206520912     -0.008733520036761887    0.00709672132240948      0.026132758492168513
0.04950280957114166       -0.004732900381039676    -0.00584447958372017     2.126890667178172E-4     -0.02614848324636861     -0.007216881722209912    0.008918394255952438     -0.02784999578011113     0.02784999578011113      -0.008918394255952438    0.007216881722209912     0.02614848324636861
0.04956084047151567       -0.004732081365688756    -0.005845588842334007    2.1294762763334005E-4    -0.02614913874784619     -0.007220813285091172    0.00892439430615788      -0.027852719768912893    0.027852719768912893     -0.00892439430615788     0.007220813285091172     0.02614913874784619
0.04965649144874944       -0.004730769988699733    -0.005847349527675245    2.133887687643412E-4     -0.026150033485367857    -0.007226953530568924    0.008934063680683642     -0.027857143635482567    0.027857143635482567     -0.008934063680683642    0.007226953530568924     0.026150033485367857
0.04970172554671024       -0.004730149828227772    -0.005848182169593884    2.1359738786799631E-4    -0.026150456613765232    -0.007229857300854148    0.008938636403798106     -0.02785923571670918     0.02785923571670918      -0.008938636403798106    0.007229857300854148     0.026150456613765232
0.05449241687093692       -0.004665148637802675    -0.005937372944739333    2.3478311569210975E-4    -0.02620328364705493     -0.007542689095844238    0.009420954021381104     -0.02808154857259179     0.02808154857259179      -0.009420954021381104    0.007542689095844238     0.02620328364705493
0.05710410836395602       -0.004627851067008772    -0.005986047915214735    2.4688546074486134E-4    -0.026226304036682326    -0.007714899768647239    0.00968998345460612      -0.028201387722641195    0.028201387722641195     -0.00968998345460612     0.007714899768647239     0.026226304036682326
0.05893549486850505       -0.004599369587594805    -0.006016846063035126    2.550462359640731E-4     -0.026229092420438718    -0.0078316140700595      0.009871983957772074     -0.02826946230815128     0.02826946230815128      -0.009871983957772074    0.0078316140700595       0.026229092420438718
0.05944764877793735       -0.004591304738544496    -0.006026325377759326    2.5723617552423316E-4    -0.026232640908270058    -0.007867421954092079    0.009925311358285937     -0.0282905303124639      0.0282905303124639       -0.009925311358285937    0.007867421954092079     0.026232640908270058
0.06300558366016187       -0.004539497325075992    -0.006092751084089734    2.7338421022849406E-4    -0.026263711061507232    -0.008105721761203263    0.010292795443031202     -0.028450784743335157    0.028450784743335157     -0.010292795443031202    0.008105721761203263     0.026263711061507232
0.06498529671838676       -0.00451040941135606     -0.006125872255455356    2.814269146012866E-4     -0.02627272793067306     -0.00823109028524882     0.010482505602059104     -0.02852414324748333     0.02852414324748333      -0.010482505602059104    0.00823109028524882      0.02627272793067306
0.06544872486330976       -0.004503137653495241    -0.006133287658369695    2.834243201296307E-4     -0.026272441001581062    -0.008259890387600098    0.010527284948637135     -0.028539835562618087    0.028539835562618087     -0.010527284948637135    0.008259890387600098     0.026272441001581062
0.06697062228684185       -0.004479257210164014    -0.006157639831869346    2.89983797279731E-4      -0.026271498726817163    -0.008354469886161106    0.010674340264398945     -0.028591369105054987    0.028591369105054987     -0.010674340264398945    0.008354469886161106     0.026271498726817163
0.06827644492011861       -0.004456860654438623    -0.006179008084478518    2.9636356040818666E-4    -0.026265291320680072    -0.008437848702925582    0.010808757186191065     -0.028636199803945543    0.028636199803945543     -0.010808757186191065    0.008437848702925582     0.026265291320680072
0.07100753626810366       -0.0044100188874118176   -0.006223699184429838    3.0970665574005224E-4    -0.02625230870515296     -0.008612233155505692    0.011089886401426097     -0.028729961951073357    0.028729961951073357     -0.011089886401426097    0.008612233155505692     0.02625230870515296
0.07480853425257358       -0.0043453379817095      -0.0062895954172292375   3.2693835463011144E-4    -0.026251708796586285    -0.008870356869748294    0.011485863706789171     -0.028867215633627152    0.028867215633627152     -0.011485863706789171    0.008870356869748294     0.026251708796586285
0.07944882770274678       -0.004268669226266248    -0.006361766468013396    3.458126923507174E-4     -0.026239387087169837    -0.009164710182104845    0.011931211720910571     -0.02900588862597555     0.02900588862597555      -0.011931211720910571    0.009164710182104845     0.026239387087169837
0.08197592129208643       -0.004223225858807987    -0.00640198706890196     3.575461151546652E-4     -0.02622222846370322     -0.00932932502847127     0.01218969394970858      -0.02908259738494051     0.02908259738494051      -0.01218969394970858     0.00932932502847127      0.02622222846370322
0.08355232235296926       -0.004193304664911429    -0.006425927332554107    3.652555911303419E-4     -0.026203368962963835    -0.00943015030331812     0.012352195032360845     -0.02912541369200654     0.02912541369200654      -0.012352195032360845    0.00943015030331812      0.026203368962963835
0.0866114848449853        -0.004135239622736546    -0.006472385786833887    3.802165933290343E-4     -0.02616677023265864     -0.009625811741712457    0.012667544488344718     -0.029208502979290885    0.029208502979290885     -0.012667544488344718    0.009625811741712457     0.02616677023265864
0.08943353583466795       -0.004083070424048523    -0.006510210354892127    3.927029721086153E-4     -0.026125960024338986    -0.009793678328144895    0.012935302105013806     -0.029267583801207878    0.029267583801207878     -0.012935302105013806    0.009793678328144895     0.026125960024338986
0.09391680186467331       -0.003995142243393912    -0.006574303951460352    4.1265893080601537E-4    -0.02606256061794484     -0.010081991644369195    0.013383263090817306     -0.029363832064392928    0.029363832064392928     -0.013383263090817306    0.010081991644369195     0.02606256061794484
0.09715827860654422       -0.003931568689953317    -0.0066206446997425835   4.270874245751622E-4     -0.026016721780833755    -0.010290447021020497    0.013707146417621779     -0.029433421177435023    0.029433421177435023     -0.013707146417621779    0.010290447021020497     0.026016721780833755
0.09814539587894029       -0.003911676687724336    -0.00663483425973585     4.315179339216981E-4     -0.02600178441896945     -0.010355077668072112    0.01380722113944568      -0.029453927890343005    0.029453927890343005     -0.01380722113944568     0.010355077668072112     0.02600178441896945
0.09897479437344475       -0.003895781022276461    -0.006645718247062705    4.3503191460431666E-4    -0.02598858912732379     -0.01040546503821795     0.01388572035505247      -0.029468844444158288    0.029468844444158288     -0.01388572035505247     0.01040546503821795      0.02598858912732379
0.10028559520933969       -0.0038704253967648946   -0.006660993221714996    4.407176999020472E-4     -0.025960959659066613    -0.010479258072007036    0.0140049996712234       -0.029486701258282955    0.029486701258282955     -0.0140049996712234      0.010479258072007036     0.025960959659066613
0.10193609313121137       -0.003838498801916467    -0.006680226741583053    4.478769696866945E-4     -0.025926169949835338    -0.01057217474216947     0.014155190499663014     -0.029509185707328855    0.029509185707328855     -0.014155190499663014    0.01057217474216947      0.025926169949835338
0.10358740997980248       -0.0038038845682960053   -0.006699186153678802    4.5599521508903355E-4    -0.025881346737272305    -0.01066580846408828     0.014313770184800536     -0.029529308457984536    0.029529308457984536     -0.014313770184800536    0.01066580846408828      0.025881346737272305
0.10570154249292216       -0.0037595689805418      -0.006723459332733115    4.66388766495726E-4      -0.025823960893300066    -0.010785684971132862    0.014516795103098657     -0.029555071025265844    0.029555071025265844     -0.014516795103098657    0.010785684971132862     0.025823960893300066
0.10704748666826329       -0.003729975372487187    -0.006739453907933927    4.723016080117455E-4     -0.025789106036729195    -0.010869204546780444    0.014647617410874397     -0.02956751890082313     0.02956751890082313      -0.014647617410874397    0.010869204546780444     0.025789106036729195
0.10925893308687949       -0.0036849426312428263   -0.006763797089746514    4.8076094488033467E-4    -0.02573823275220388     -0.010998462227232574    0.014844549786275236     -0.029584320311246526    0.029584320311246526     -0.014844549786275236    0.010998462227232574     0.02573823275220388
0.1128128664843259        -0.003606821992035263    -0.006802307644935645    4.964118754273169E-4     -0.02563491941716822     -0.011207631449027167    0.015178926452445689     -0.029606214420586717    0.029606214420586717     -0.015178926452445689    0.011207631449027167     0.02563491941716822
0.11315463860799091       -0.0035993093423094076   -0.006806011100447773    4.979169829158869E-4     -0.02562498405429861     -0.011227746685060982    0.015211082548388065     -0.02960831991762567     0.02960831991762567      -0.015211082548388065    0.011227746685060982     0.02562498405429861
0.11578185798485885       -0.003541091012793386    -0.006834628858044868    5.093126052519109E-4     -0.025548818178713763    -0.011384454127540217    0.015458954969555492     -0.029623319020729018    0.029623319020729018     -0.015458954969555492    0.011384454127540217     0.025548818178713763
0.11658177304254758       -0.0035246640320971646   -0.006842641661446577    5.123280386805413E-4     -0.025527940893811923    -0.011429284765423263    0.015527909074867577     -0.02962656520325622     0.02962656520325622      -0.015527909074867577    0.011429284765423263     0.025527940893811923
0.1192546279158762        -0.0034653566334008606   -0.0068683473838321045   5.239303812099019E-4     -0.025440033893458454    -0.011578607359855012    0.015770050409534213     -0.029631476943137634    0.029631476943137634     -0.015770050409534213    0.011578607359855012     0.025440033893458454
0.11971128468957806       -0.0034558010482298855   -0.006872121676668734    5.259947687731004E-4     -0.025423988051373598    -0.011600783858454056    0.015808742008638847     -0.02963194620155837     0.02963194620155837      -0.015808742008638847    0.011600783858454056     0.025423988051373598
0.12073162766691439       -0.0034322513159355233   -0.006881497981840339    5.304451533617219E-4     -0.025387215963945203    -0.011658210700203108    0.015901771927096874     -0.029630777190838946    0.029630777190838946     -0.015901771927096874    0.011658210700203108     0.025387215963945203
0.12390461299821567       -0.003362599813342127    -0.006911972107146876    5.443534365219793E-4     -0.025283702202036993    -0.011833302948668481    0.016188130440844304     -0.0296385296942128      0.0296385296942128       -0.016188130440844304    0.011833302948668481     0.025283702202036993
0.1265326220595926        -0.0033065547207569365   -0.006933926028392242    5.554865529705253E-4     -0.02519294131480852     -0.01196672243178077     0.01641061485554496      -0.02963683373857269     0.02963683373857269      -0.01641061485554496     0.01196672243178077      0.02519294131480852
0.1284967351766296        -0.003261770187279375    -0.006951651007207748    5.646712597263927E-4     -0.025119808357276445    -0.012072727608158947    0.016590097685970077     -0.029637178435087556    0.029637178435087556     -0.016590097685970077    0.012072727608158947     0.025119808357276445
0.12853190326103947       -0.003261115556899146    -0.0069519966986959746   5.648239413516833E-4     -0.02511892544447951     -0.012074463216882922    0.01659305474769638      -0.02963751697529294     0.02963751697529294      -0.01659305474769638     0.012074463216882922     0.02511892544447951
0.1312274529538838        -0.003210939701433442    -0.006978493125798756    5.765266233447971E-4     -0.025051252286883985    -0.012207493481150217    0.01681970646790859      -0.029663465273642338    0.029663465273642338     -0.01681970646790859     0.012207493481150217     0.025051252286883985
0.13366776838646163       -0.003150094194486263    -0.006992024860427077    5.863555838955096E-4     -0.02493084063467174     -0.012330463856726688    0.017021308527890758     -0.02962168530583579     0.02962168530583579      -0.017021308527890758    0.012330463856726688     0.02493084063467174
0.13372102688623394       -0.0031487662758186053   -0.00699232018285794     5.865700953829445E-4     -0.024928212718679274    -0.012333147615404856    0.017025708378468403     -0.0296207734817428      0.0296207734817428       -0.017025708378468403    0.012333147615404856     0.024928212718679274
0.13918657430684755       -0.0030144859704387093   -0.007036912601336688    6.104961119633034E-4     -0.024697725297034286    -0.012639781415279452    0.01752375031098587      -0.029581694192740683    0.029581694192740683     -0.01752375031098587     0.012639781415279452     0.024697725297034286
0.1439892549523237        -0.0029032531884650194   -0.0070610882889463825   6.298512520805457E-4     -0.02447036623544702     -0.012857353481586946    0.017896163498231303     -0.029509176252091356    0.029509176252091356     -0.017896163498231303    0.012857353481586946     0.02447036623544702
0.1467939889610189        -0.002834455581049774    -0.007071858495882174    6.420757606829862E-4     -0.024316183607014145    -0.012978361282815052    0.018114967368278934     -0.029452789692478006    0.029452789692478006     -0.018114967368278934    0.012978361282815052     0.024316183607014145
0.15040118640430242       -0.002752479460710719    -0.007088304628390286    6.558944462170981E-4     -0.024146295021723926    -0.01313637717888105     0.01838353274861783      -0.02939345059146068     0.02939345059146068      -0.01838353274861783     0.01313637717888105      0.024146295021723926
0.15629432583012204       -0.0026171905756426335   -0.007109217860890514    6.7953303527592E-4       -0.02384390259285315     -0.013375140290282621    0.01881140457248997      -0.02928016687506048     0.02928016687506048      -0.01881140457248997     0.013375140290282621     0.02384390259285315
0.1572649522438407        -0.002592700408238333    -0.007113781054407927    6.833242588078078E-4     -0.023793446944469235    -0.013422645311515907    0.018889239381978357     -0.029260041014931668    0.029260041014931668     -0.018889239381978357    0.013422645311515907     0.023793446944469235
0.15825282344651448       -0.0025677751323696543   -0.007118425320630612    6.871828397171216E-4     -0.023742094867762676    -0.013470994338284064    0.01896845705602103      -0.029239557585499617    0.029239557585499617     -0.01896845705602103     0.013470994338284064     0.023742094867762676
0.15897207682206022       -0.0025507615722900434   -0.007122439895519121    6.904611141950657E-4     -0.023706998374357205    -0.013503952085197033    0.01902764099875755      -0.0292306872879177      0.0292306872879177       -0.01902764099875755     0.013503952085197033     0.023706998374357205
0.16061113129437596       -0.0025085793586265373   -0.007122495422244045    6.966099812891237E-4     -0.02359820505882873     -0.013563887624322587    0.019136767474635566     -0.029171084909141685    0.029171084909141685     -0.019136767474635566    0.013563887624322587     0.02359820505882873
0.1617011491659313        -0.002482291076630346    -0.007123981201879459    7.009230890543959E-4     -0.023532833402681506    -0.013603669096160124    0.01921105380859528      -0.02914021811511664     0.02914021811511664      -0.01921105380859528     0.013603669096160124     0.023532833402681506
0.167718009038191         -0.0023371806952493194   -0.007132182652608508    7.247312904745868E-4     -0.023171984186425833    -0.013823261405428564    0.019621111729225246     -0.028969834510222496    0.028969834510222496     -0.019621111729225246    0.013823261405428564     0.023171984186425833
0.16951054167198745       -0.0022981012054098574   -0.0071352000916525445   7.309810897227731E-4     -0.023077878326886278    -0.013885473505246857    0.019733322223029027     -0.028925727044668434    0.028925727044668434     -0.019733322223029027    0.013885473505246857     0.023077878326886278
0.17081405427109736       -0.0022696829739020517   -0.007137394344486101    7.355258840034014E-4     -0.02300944544524882     -0.013930713549640622    0.01981492062166782      -0.028893652517276       0.028893652517276        -0.01981492062166782     0.013930713549640622     0.02300944544524882
0.17475554812773456       -0.0021790743125630592   -0.007138179621258725    7.489002998172715E-4     -0.02277708628963323     -0.014060789039380999    0.020051991437919157     -0.02876828868817137     0.02876828868817137      -0.020051991437919157    0.014060789039380999     0.02277708628963323
0.17716086360294772       -0.002116325389878273    -0.007132589362505693    7.583613913632653E-4     -0.022596973301820582    -0.014131671742307504    0.02019856287321361      -0.028663864432726675    0.028663864432726675     -0.02019856287321361     0.014131671742307504     0.022596973301820582
0.17998374343153387       -0.0020492210686012674   -0.007126932687152058    7.681372217786378E-4     -0.02240669131154418     -0.014209807037139116    0.020354904811368202     -0.028551789085773244    0.028551789085773244     -0.020354904811368202    0.014209807037139116     0.02240669131154418
0.1843706006586359        -0.0019392916603265147   -0.007119329771810901    7.867175415643426E-4     -0.022089702469828384    -0.01433253582852233     0.020626276161037058     -0.028383442802343093    0.028383442802343093     -0.020626276161037058    0.01433253582852233      0.022089702469828384
0.18666496121345286       -0.001885156829454492    -0.0071168635811715095   7.951978601714361E-4     -0.021940112961737784    -0.014399485643919824    0.0207610685252913       -0.028301695843109247    0.028301695843109247     -0.0207610685252913      0.014399485643919824     0.021940112961737784
0.1885814823068541        -0.0018453975316169231   -0.00711580369415623     8.008332951153798E-4     -0.021834872965241035    -0.01445328283877335     0.020859949199696373     -0.028241539326164043    0.028241539326164043     -0.020859949199696373    0.01445328283877335      0.021834872965241035
0.18997943591466596       -0.0018125512782726529   -0.007112459544507935    8.063185257815728E-4     -0.02173720708694284     -0.014487001973852234    0.020937550180104805     -0.028187755293195386    0.028187755293195386     -0.020937550180104805    0.014487001973852234     0.02173720708694284
0.190399504962501         -0.001802681355343755    -0.007111454665840483    8.0796677477226E-4       -0.02170785960911994     -0.014497134187744926    0.020960868385922996     -0.028171593807297984    0.028171593807297984     -0.020960868385922996    0.014497134187744926     0.02170785960911994
0.19290487242487367       -0.0017440277713729082   -0.007100846691678802    8.161374659871961E-4     -0.02152604575383346     -0.01454993466834183     0.021079034396239392     -0.02805514548173099     0.02805514548173099      -0.021079034396239392    0.01454993466834183      0.02152604575383346
0.194713469287243         -0.0017019975478844932   -0.007094720400390964    8.216797510242367E-4     -0.021401437292844955    -0.014593447101306984    0.021166885109500867     -0.027974875301038808    0.027974875301038808     -0.021166885109500867    0.014593447101306984     0.021401437292844955
0.1950416066685491        -0.0016938148688322389   -0.007093320377578525    8.228367541522381E-4     -0.021376243853791124    -0.014600984378462172    0.02118367841168007      -0.027958937887008987    0.027958937887008987     -0.02118367841168007     0.014600984378462172     0.021376243853791124
0.19625246178338526       -0.00166652258510853     -0.007090397449493201    8.272032299934148E-4     -0.02129542459872303     -0.014629334258288915    0.021246960098236223     -0.02791305043867031     0.02791305043867031      -0.021246960098236223    0.014629334258288915     0.02129542459872303
0.20036383098567082       -0.001574202226159748    -0.007072900032681914    8.393055655058801E-4     -0.02100988228834174     -0.014713073383702752    0.021427517907749785     -0.027724326812388737    0.027724326812388737     -0.021427517907749785    0.014713073383702752     0.02100988228834174
0.20084545626763192       -0.0015633873815856481   -0.007070850302314559    8.407232904697046E-4     -0.020976432508236182    -0.014722882981893594    0.02144866930565122      -0.02770221883199377     0.02770221883199377      -0.02144866930565122     0.014722882981893594     0.020976432508236182