% Model:              Cylinder_slice_potential_1.mph
% Version:            COMSOL 6.2.0.415
% Date:               May 17 2024, 18:28
% Dimension:          1
% Nodes:              772
% Expressions:        11
% Description:        Line graph
% Arc length (m)          Magnetic scalar potential Magnetic scalar potential Magnetic scalar potential Magnetic scalar potential Magnetic scalar potential Magnetic scalar potential Magnetic scalar potential Magnetic scalar potential Magnetic scalar potential Magnetic scalar potential Magnetic scalar potential
0                         -0.0023695396642012365   1.3551280152096295E-6    2.7067317941630803E-7    -0.004733931251639175    0.004744227405165761     -0.004742062019730442    -0.004736096637074502    0.004736096637074502     0.004742062019730442     -0.004744227405165761    0.004733931251639175
5.933638424206019E-4      -0.002369532356773388    1.5180449468038697E-6    2.276618489525167E-6     -0.004725404104748259    0.004752725322345282     -0.004734512374429092    -0.004743617052664457    0.004743617052664457     0.004734512374429092     -0.004752725322345282    0.004725404104748259
9.015934327015668E-4      -0.0023695136564662214   1.4529172216235446E-6    3.297067245133203E-6     -0.004721480292287036    0.004756574333577841     -0.004730197795616786    -0.0047478568302480985   0.0047478568302480985    0.004730197795616786     -0.004756574333577841    0.004721480292287036
0.001127005801979108      -0.0023697072822530625   1.4727898940211954E-6    4.0222709473538965E-6    -0.004718907111034642    0.004759922017977598     -0.004727743850398779    -0.0047510852786134695   0.0047510852786134695    0.004727743850398779     -0.004759922017977598    0.004718907111034642
0.002579475433204957      -0.002369681696154894    1.462654748890186E-6     8.760681769535332E-6     -0.004699932700984973    0.004778794083634594     -0.004708708629478323    -0.004770018155141252    0.004770018155141252     0.004708708629478323     -0.004778794083634594    0.004699932700984973
0.005282447988213316      -0.002369694305520172    1.168969726879204E-6     1.755166212938738E-5     -0.004665675053342153    0.004813102168738526     -0.004672688871703438    -0.004806088350377251    0.004806088350377251     0.004672688871703438     -0.004813102168738526    0.004665675053342153
0.006489236621302323      -0.002370004662599514    1.244389207882925E-6     2.161861142073727E-5     -0.004649801711892428    0.004830216938505621     -0.004657268047139734    -0.004822750603258324    0.004822750603258324     0.004657268047139734     -0.004830216938505621    0.004649801711892428
0.00664019080191852       -0.0023700434843925986   1.2538232426801151E-6    2.2127335965409105E-5    -0.004647816155195519    0.0048323577823748695    -0.004655339094651608    -0.0048248348429187895   0.0048248348429187895    0.004655339094651608     -0.0048323577823748695   0.004647816155195519
0.013059591572572136      -0.002368966933984963    1.3617673667655723E-6    4.372177683390289E-5     -0.004558961458534017    0.0049169062774058305    -0.004567132062734617    -0.004908735673205237    0.004908735673205237     0.004567132062734617     -0.0049169062774058305   0.004558961458534017
0.016910019555904626      -0.002366716854118105    1.0492346486756089E-6    5.649151644055587E-5     -0.004504319938527958    0.004962547477944456     -0.0045106153464200185   -0.0049562520700524035   0.0049562520700524035    0.0045106153464200185    -0.004962547477944456    0.004504319938527958
0.02013165302691125       -0.0023660689142169563   7.200048207524556E-7     6.697598254971097E-5     -0.004462073883772811    0.005002201773095009     -0.004466393912697331    -0.004997881744170496    0.004997881744170496     0.004466393912697331     -0.005002201773095009    0.004462073883772811
0.024411173657034706      -0.0023662888364731354   1.015099929870423E-6     8.140702161233825E-5     -0.004403904286707306    0.005061251059185232     -0.004409994886286534    -0.005055160459606011    0.005055160459606011     0.004409994886286534     -0.005061251059185232    0.004403904286707306
0.02499217734316517       -0.002366318693939087    1.055163142780247E-6     8.336623331260695E-5     -0.004396006965199404    0.00506926781055694      -0.004402337944056092    -0.005062936831700258    0.005062936831700258     0.004402337944056092     -0.00506926781055694     0.004396006965199404
0.028948369626040235      -0.0023648735788908146   9.403211165716803E-7     9.651910308223867E-5     -0.004340849782102958    0.005118644533460296     -0.0043464917088023945   -0.005113002606760866    0.005113002606760866     0.0043464917088023945    -0.005118644533460296    0.004340849782102958
0.032870776938437866      -0.0023617742577184933   6.472814269660032E-7     1.0953562455647804E-4    -0.004283464172930175    0.005163632857943794     -0.004287347861491977    -0.005159749169381998    0.005159749169381998     0.004287347861491977     -0.005163632857943794    0.004283464172930175
0.03322667526938867       -0.002361493041836394    6.206925675929944E-7     1.1071667432987226E-4    -0.004278257308650518    0.005167714858695053     -0.004281981464056082    -0.0051639907032894955   0.0051639907032894955    0.004281981464056082     -0.005167714858695053    0.004278257308650518
0.034980858065609195      -0.002360779250666331    4.52757134619286E-7      1.1642908449440035E-4    -0.004254483891951202    0.005188633110714119     -0.004257200434758923    -0.005185916567906404    0.005185916567906404     0.004257200434758923     -0.005188633110714119    0.004254483891951202
0.038391735327719         -0.0023593935603816733   -3.9106056171916213E-7   1.2783710527863797E-4    -0.004208611881333951    0.0052289623601927395    -0.004206265517963642    -0.005231308723563054    0.005231308723563054     0.004206265517963642     -0.0052289623601927395   0.004208611881333951
0.04148511209379492       -0.0023581368566652555   -1.1563317386252708E-6   1.381832138392971E-4     -0.0041670098531891965   0.005265537573471823     -0.004160071862757452    -0.005272475563903574    0.005272475563903574     0.004160071862757452     -0.005265537573471823    0.0041670098531891965
0.04219691363771808       -0.002357517758541256    -1.4521711246108358E-6   1.4054354233767894E-4    -0.004157217861105626    0.005272853173059394     -0.004148504834357968    -0.005281566199807058    0.005281566199807058     0.004148504834357968     -0.005272853173059394    0.004157217861105626
0.04572948505588258       -0.002354611190568371    -9.932488197663088E-7    1.52239971791549E-4      -0.0041032422404298444   0.0053152025218436375    -0.004097282747511252    -0.005321162014762235    0.005321162014762235     0.004097282747511252     -0.0053152025218436375   0.0041032422404298444
0.05013723683208512       -0.002350984532072732    -4.2063036004710367E-7   1.668341445902722E-4     -0.004035894376864516    0.005368043751426411     -0.00403337059470424     -0.005370567533586694    0.005370567533586694     0.00403337059470424      -0.005368043751426411    0.004035894376864516
0.050764619766096086      -0.0023506378354228538   -2.3079819196012426E-7   1.6895050921752021E-4    -0.004026166028551506    0.005376385313139907     -0.004024781239399752    -0.005377770102291668    0.005377770102291668     0.004024781239399752     -0.005376385313139907    0.004026166028551506
0.05224649529625072       -0.0023498189395715486   2.175844934372107E-7     1.7394935248211694E-4    -0.0040031877157343165   0.0053960880425518755    -0.004004493222694947    -0.005394782535591253    0.005394782535591253     0.004004493222694947     -0.0053960880425518755   0.0040031877157343165
0.05290254038411957       -0.0023494553515008704   1.3228817048748743E-7    1.7611564306938904E-4    -0.003994051266212721    0.005403770139790758     -0.0039948449952356534   -0.005402976410767833    0.005402976410767833     0.0039948449952356534    -0.005403770139790758    0.003994051266212721
0.05354162228872118       -0.0023491673412811063   4.697100269152759E-7     1.7823269748019037E-4    -0.003983994762560704    0.0054126746025637195    -0.003986813022722203    -0.0054098563424022274   0.0054098563424022274    0.003986813022722203     -0.0054126746025637195   0.003983994762560704
0.05354639914302351       -0.002349165188532222    4.7223210590854744E-7    1.78248521524648E-4      -0.003983919594648125    0.005412741159480761     -0.0039867529872835835   -0.005409907766845309    0.005409907766845309     0.0039867529872835835    -0.005412741159480761    0.003983919594648125
0.06042972108461019       -0.0023433659554231464   -2.7625376897311117E-7   2.0111020213427536E-4    -0.0038831198636161096   0.005490343958076474     -0.003881462341002277    -0.005492001480690312    0.005492001480690312     0.003881462341002277     -0.005490343958076474    0.0038831198636161096
0.0635937778202581        -0.0023395666318348483   -2.0664864097203725E-6   2.1147836333162176E-4    -0.003839419269572369    0.005518847257767022     -0.003827020351114053    -0.0055312461762253426   0.0055312461762253426    0.003827020351114053     -0.005518847257767022    0.003839419269572369
0.06360816713052106       -0.0023395493534955295   -2.0746279239417712E-6   2.115255150424758E-4     -0.0038392205305929797   0.005518976883389136     -0.003826772763049336    -0.005531424650932785    0.005531424650932785     0.003826772763049336     -0.005518976883389136    0.0038392205305929797
0.06670087710646243       -0.002336155950149958    -1.7895046702127632E-6   2.2169267917300446E-4    -0.0037909096976185353   0.005553714102981295     -0.0037801726695972657   -0.0055644511310025705   0.0055644511310025705    0.0037801726695972657    -0.005553714102981295    0.0037909096976185353
0.0692199578090819        -0.002334583512049621    -4.704609939167303E-7    2.3019439660069553E-4    -0.003749800820678208    0.005588533227520272     -0.0037469780547147143   -0.005591355993483772    0.005591355993483772     0.0037469780547147143    -0.005588533227520272    0.003749800820678208
0.06980708568048902       -0.002334217020323567    -1.630284828616512E-7    2.321759112268187E-4     -0.003740219481188443    0.005596648600105824     -0.0037392413102912796   -0.005597626771002992    0.005597626771002992     0.0037392413102912796    -0.005596648600105824    0.003740219481188443
0.07386037442317445       -0.002327271471097306    -2.218830626813952E-6    2.4579554655111766E-4    -0.0036780172478705813   0.005631068636518639     -0.003664704264109705    -0.0056443816202795235   0.0056443816202795235    0.003664704264109705     -0.005631068636518639    0.0036780172478705813
0.07463757064184376       -0.0023263466373449164   -2.3128900853776766E-6   2.483620404902615E-4     -0.0036661837829849186   0.005639202766394745     -0.0036523064424726598   -0.005653080106907012    0.005653080106907012     0.0036523064424726598    -0.005639202766394745    0.0036661837829849186
0.07860060364544483       -0.0023246950148162744   -3.8492299096775815E-8   2.6130665932265745E-4    -0.0036042788692392065   0.005694501190025885     -0.003604047915444634    -0.005694732143820467    0.005694732143820467     0.003604047915444634     -0.005694501190025885    0.0036042788692392065
0.07918445027636783       -0.002324451692530533    2.9657921902891585E-7    2.6321370175379775E-4    -0.0035951588403887857   0.0057026479297333415    -0.0035969383157029664   -0.005700868454419169    0.005700868454419169     0.0035969383157029664    -0.0057026479297333415   0.0035951588403887857
0.08269107695856538       -0.0023197579798342203   1.2736766965623692E-6    2.7463941155776673E-4    -0.003537137283347684    0.005741894635989192     -0.0035447793435270654   -0.0057342525758098195   0.0057342525758098195    0.0035447793435270654    -0.005741894635989192    0.003537137283347684
0.08297989173922884       -0.002319228563594718    1.1220636832899632E-6    2.755836209918784E-4     -0.0035327564521720504   0.005744157802206816     -0.0035394888342717974   -0.005737425420107079    0.005737425420107079     0.0035394888342717974    -0.005744157802206816    0.0035327564521720504
0.08326451738083973       -0.0023189269001534785   1.1704439108276066E-6    2.765039153872977E-4     -0.003528326807025281    0.005747380793588627     -0.0035353494704902537   -0.005740358130123663    0.005740358130123663     0.0035353494704902537    -0.005747380793588627    0.003528326807025281
0.09547425355009817       -0.0023043368742616394   3.2298090317694925E-7    3.171532770078733E-4     -0.0033390916977822523   0.0058782557992643       -0.003341029583201319    -0.005876317913845235    0.005876317913845235     0.003341029583201319     -0.0058782557992643      0.0033390916977822523
0.09575589289633415       -0.0023040351623889164   3.7611487209001905E-7    3.180736406738864E-4     -0.0033346474174660145   0.005881493232089645     -0.003336904106698559    -0.0058792365428571025   0.0058792365428571025    0.003336904106698559     -0.005881493232089645    0.0033346474174660145
0.09597118258273439       -0.002303804528937554    4.167313401275219E-7     3.187771815948488E-4     -0.003331250137475328    0.0058839679782748825    -0.0033337505255160984   -0.005881467590234115    0.005881467590234115     0.0033337505255160984    -0.0058839679782748825   0.003331250137475328
0.09790024052448622       -0.0023016377269347637   3.2207433647766134E-7    3.2512120613694773E-4    -0.0033018244063123016   0.005904726501426748     -0.0033037568523311724   -0.0059027940554078765   0.0059027940554078765    0.0033037568523311724    -0.005904726501426748    0.0033018244063123016
0.09957687202757481       -0.002299467194626612    6.822468768209163E-7     3.3080685945231547E-4    -0.0032736602108134976   0.005924208567692946     -0.0032777536920744277   -0.005920115086432015    0.005920115086432015     0.0032777536920744277    -0.005924208567692946    0.0032736602108134976
0.10374633806579014       -0.0022926766903530313   1.0388637663245862E-6    3.446450410320384E-4     -0.003203656625278933    0.005967050136133187     -0.003209889807876885    -0.005960816953535235    0.005960816953535235     0.003209889807876885     -0.005967050136133187    0.003203656625278933
0.10590424615008548       -0.002289162263341491    1.2234309175623818E-6    3.518069950158662E-4     -0.003167426253866828    0.005989222799499132     -0.003174766839372208    -0.005981882213993753    0.005981882213993753     0.003174766839372208     -0.005989222799499132    0.003167426253866828
0.11064372392187516       -0.0022834355557185887   -2.6877392190817965E-7   3.669193818475128E-4     -0.0030999999058128488   0.006033742317061502     -0.0030983872622814056   -0.006035354960592949    0.006035354960592949     0.0030983872622814056    -0.006033742317061502    0.0030999999058128488
0.11126231060799807       -0.0022826666587473197   4.0550915255570987E-7    3.690810052312235E-4     -0.003087792769112076    0.006042873865877197     -0.0030902258240274156   -0.006040440810961861    0.006040440810961861     0.0030902258240274156    -0.006042873865877197    0.003087792769112076
0.11219686960826089       -0.0022809808369989634   -3.0094798429228593E-8   3.7219798379630907E-4    -0.003073260023207975    0.0060506633247878715    -0.003073079454417405    -0.006050843893578444    0.006050843893578444     0.003073079454417405     -0.0060506633247878715   0.003073260023207975
0.11281276949511236       -0.0022799401467023675   -9.80656601746065E-8     3.7430808719341434E-4    -0.0030629421416115982   0.006056818445197865     -0.0030623537476505563   -0.00605740683915891     0.00605740683915891      0.0030623537476505563    -0.006056818445197865    0.0030629421416115982
0.11594010141518978       -0.0022746558723374267   -4.431987737040935E-7    3.850224806351238E-4     -0.0030105514184554675   0.006088072070894233     -0.003007892225813249    -0.006090731263536456    0.006090731263536456     0.003007892225813249     -0.006088072070894233    0.0030105514184554675
0.11905621299775665       -0.002268360699873246    1.078909750145016E-6     3.949293867791889E-4     -0.0029537671233792976   0.00611967567611368      -0.0029602405818801745   -0.006113202217612808    0.006113202217612808     0.0029602405818801745    -0.00611967567611368     0.0029537671233792976
0.11942439990595524       -0.0022676168882269842   1.2587558232041416E-6    3.9609994599902024E-4    -0.002947057724988272    0.00612340982791966      -0.0029546102599275034   -0.006115857292980434    0.006115857292980434     0.0029546102599275034    -0.00612340982791966     0.002947057724988272
0.12329519742398118       -0.002260229313649704    5.947981845734354E-7     4.082726402042368E-4     -0.0028855836719287376   0.006155333582670074     -0.002889152461036185    -0.006151764793562633    0.006151764793562633     0.002889152461036185     -0.006155333582670074    0.0028855836719287376
0.1260760950712124        -0.002255700628513781    -8.137364863361189E-7    4.178146926387068E-4     -0.0028425836959317407   0.006180218818123379     -0.0028377012770137307   -0.006185101237041395    0.006185101237041395     0.0028377012770137307    -0.006180218818123379    0.0028425836959317407
0.12715909049976887       -0.002253579049222234    -7.137535834899191E-7    4.2126347899496257E-4    -0.0028242454432150844   0.006190070753673845     -0.0028199629217141517   -0.0061943532751747845   0.0061943532751747845    0.0028199629217141517    -0.006190070753673845    0.0028242454432150844
0.13322210652188904       -0.002241701649837459    -1.5401166223121194E-7   4.405710830563378E-4     -0.0027215810024362576   0.006245225596913574     -0.0027206569324628774   -0.006246149666886959    0.006246149666886959     0.0027206569324628774    -0.006245225596913574    0.0027215810024362576
0.1358771384402744        -0.0022359904047516517   -4.3876453937759664E-7   4.4903051554929564E-4    -0.002677175040924251    0.006266786578082352     -0.002674542453687993    -0.006269419165318616    0.006269419165318616     0.002674542453687993     -0.006266786578082352    0.002677175040924251
0.13760012104504415       -0.0022323075062886553   -3.801453764769185E-7    4.546886176836E-4        -0.0026470009779723386   0.0062822290471822775    -0.0026447201057134837   -0.0062845099194411376   0.0062845099194411376    0.0026447201057134837    -0.0062822290471822775   0.0026470009779723386
0.13901227625124413       -0.002229592308716561    -1.9839040881771707E-7   4.593199042488401E-4     -0.0026225001716642118   0.006295869063202027     -0.002621309829211312    -0.006297059405654931    0.006297059405654931     0.002621309829211312     -0.006295869063202027    0.0026225001716642118
0.14028602704248627       -0.0022268712717351453   -2.916001872989412E-7    4.6333932966032855E-4    -0.0026012600253908706   0.006306225061549706     -0.0025995104242670835   -0.006307974662673498    0.006307974662673498     0.0025995104242670835    -0.006306225061549706    0.0026012600253908706
0.14151409187685657       -0.0022242478309075727   -3.814667859768606E-7    4.6721458927638716E-4    -0.0025807817050675246   0.0063162096185627615    -0.0025784929043516703   -0.006318498419278621    0.006318498419278621     0.0025784929043516703    -0.0063162096185627615   0.0025807817050675246
0.14937570028377156       -0.0022070432486712486   -6.644743802303333E-7    4.921380829789434E-4     -0.002447527588567412    0.006380645406117578     -0.002443540742286037    -0.006384632252398959    0.006384632252398959     0.002443540742286037     -0.006380645406117578    0.002447527588567412
0.15197531659295094       -0.0022013534771997256   -3.8206361615198726E-7   5.006092767099164E-4     -0.002401416038408239    0.006403997870390659     -0.0023991236567113337   -0.00640629025208757     0.00640629025208757      0.0023991236567113337    -0.006403997870390659    0.002401416038408239
0.1552208805201925        -0.0021934856662892397   -1.1404424502549164E-8   5.109678904826486E-4     -0.00234313398392139     0.006430808681235564     -0.0023430655573743815   -0.0064308771077825795   0.0064308771077825795    0.0023430655573743815    -0.006430808681235564    0.00234313398392139
0.158822066593726         -0.002184755765503056    3.998685465184199E-7     5.224615157803579E-4     -0.002278465862245122    0.006460557199767097     -0.0022808650735242405   -0.006458157988487985    0.006458157988487985     0.0022808650735242405    -0.006460557199767097    0.002278465862245122
0.16263166137488005       -0.0021736108930685257   1.768361574224929E-7     5.34021969438057E-4      -0.002210603399912552    0.0064838401723615454    -0.002211664416857095    -0.00648277915541701     0.00648277915541701      0.002211664416857095     -0.0064838401723615454   0.002210603399912552
0.1630197016510785        -0.0021727007674439496   1.1515075971115996E-7    5.35218162827629E-4      -0.0022041834312982464   0.006486619638477548     -0.0022048743358565213   -0.0064859287339192806   0.0064859287339192806    0.0022048743358565213    -0.006486619638477548    0.0022041834312982464
0.16472289539136703       -0.0021691992513053764   6.739699181331121E-8     5.40757879154461E-4      -0.0021751647950174658   0.006501632210204035     -0.0021755691769683536   -0.006501227828253155    0.006501227828253155     0.0021755691769683536    -0.006501632210204035    0.0021751647950174658
0.16728102010733292       -0.002162270634422642    5.892981349604835E-7     5.486385746824098E-4     -0.0021282190757107603   0.006520863461979802     -0.002131754864520531    -0.006517327673170039    0.006517327673170039     0.002131754864520531     -0.006520863461979802    0.0021282190757107603
0.17264569131277324       -0.0021477405564900263   1.683782706902419E-6     5.65165267112128E-4      -0.002029768696410831    0.00656119352954927      -0.002039871392652254    -0.006551090833307854    0.006551090833307854     0.002039871392652254     -0.00656119352954927     0.002029768696410831
0.1742236127321493        -0.002144021578180874    1.7879079520714268E-6    5.69976584536816E-4      -0.002002773094358267    0.0065733132183652225    -0.002013500542070704    -0.006562585770652794    0.006562585770652794     0.002013500542070704     -0.0065733132183652225   0.002002773094358267
0.17513695403038992       -0.0021415596345130405   1.945599027658001E-6     5.726944679273297E-4     -0.0019865046002337855   0.00657973393781837      -0.0019981781943997417   -0.006568060343652421    0.006568060343652421     0.0019981781943997417    -0.00657973393781837     0.0019865046002337855
0.1794188974397644        -0.002130017505099821    2.6848892175638017E-6    5.854364986379487E-4     -0.0019102343479951518   0.006609835672404124     -0.0019263436833005425   -0.00659372633709874     0.00659372633709874      0.0019263436833005425    -0.006609835672404124    0.0019102343479951518
0.18090660783337575       -0.002126332201693796    2.643258866205289E-6     5.898836346906317E-4     -0.0018852000880264454   0.006620128718748731     -0.0019010596412236847   -0.006604269165551498    0.006604269165551498     0.0019010596412236847    -0.006620128718748731    0.0018852000880264454
0.18148861441603417       -0.002124672045623997    2.6564675075943603E-6    5.917645542242669E-4     -0.0018743164718281401   0.006624371710667841     -0.001890255276873714    -0.006608432905622273    0.006608432905622273     0.001890255276873714     -0.006624371710667841    0.0018743164718281401
0.18887019205328237       -0.002104734368154164    2.1444517706232034E-6    6.134862363336725E-4     -0.0017490904356617645   0.006669847036954884     -0.0017619571462855112   -0.0066569803263311425   0.0066569803263311425    0.0017619571462855112    -0.006669847036954884    0.0017490904356617645
0.18907721462349866       -0.0021041279888973684   2.0886339723111133E-6    6.141415823340499E-4     -0.0017454237465416      0.006671088209047866     -0.0017579555503754746   -0.006658556405213998    0.006658556405213998     0.0017579555503754746    -0.006671088209047866    0.0017454237465416
0.19135391966714083       -0.002097459408216219    1.4747846571887723E-6    6.213486687055074E-4     -0.0017050997876388388   0.00668473784522603      -0.001713948495581979    -0.006675889137282896    0.006675889137282896     0.001713948495581979     -0.00668473784522603     0.0017050997876388388
0.19270760110767074       -0.0020933348168705227   1.4875008589592132E-6    6.255708269726254E-4     -0.001679923823273663    0.006693415444208421     -0.0016888488284274258   -0.006684490439054664    0.006684490439054664     0.0016888488284274258    -0.006693415444208421    0.001679923823273663
0.19602301489584695       -0.0020832329372046827   1.5186451661947798E-6    6.359116658993857E-4     -0.0016182632753132353   0.00671466847350549      -0.0016273751463104116   -0.006705556602508319    0.006705556602508319     0.0016273751463104116    -0.00671466847350549     0.0016182632753132353
0.1995911773465081        -0.0020729013970736602   1.2236822693846387E-6    6.460092924635862E-4     -0.001558094577484818    0.006733511010809816     -0.0015654366711011336   -0.006726168917193505    0.006726168917193505     0.0015654366711011336    -0.006733511010809816    0.001558094577484818
0.2017233187035196        -0.0020667278261391597   1.0474283572466774E-6    6.520430892715764E-4     -0.0015221410101202701   0.0067447702944363605    -0.0015284255802637578   -0.00673848572429288     0.00673848572429288      0.0015284255802637578    -0.0067447702944363605   0.0015221410101202701
0.2018012315009059        -0.002066484463701119    1.0253850338655677E-6    6.522809424486342E-4     -0.001520769002506101    0.006745168852298368     -0.0015269213127093017   -0.006739016542095173    0.006739016542095173     0.0015269213127093017    -0.006745168852298368    0.001520769002506101
0.20213956979883402       -0.0020653877678072103   1.024063004168639E-6     6.53298073393529E-4      -0.0015145110530277953   0.006747040018201038     -0.0015206554310528142   -0.006740895640176025    0.006740895640176025     0.0015206554310528142    -0.006747040018201038    0.0015145110530277953
0.20881826353250596       -0.0020427603872005366   5.117155016361541E-7     6.733024594803666E-4     -0.0013907757899746945   0.006780265758827445     -0.0013938460829845188   -0.0067771954658176255   0.0067771954658176255    0.0013938460829845188    -0.006780265758827445    0.0013907757899746945
0.2105574153756597        -0.0020366857725681287   7.994739086782594E-7     6.784235195876191E-4     -0.0013572790450597431   0.006789464045212766     -0.00136207588851182     -0.006784667201760694    0.006784667201760694     0.00136207588851182      -0.006789464045212766    0.0013572790450597431
0.21272509918717925       -0.002029667073113032    8.452967147377889E-7     6.848440069865859E-4     -0.0013174222281355035   0.006801246064316618     -0.0013224940084239378   -0.0067961742840281884   0.0067961742840281884    0.0013224940084239378    -0.006801246064316618    0.0013174222281355035
0.21440105576299973       -0.002024240527302722    8.807248674646322E-7     6.89808041879077E-4      -0.0012866067124867393   0.006810355396724143     -0.0012918910616915346   -0.006805071047519352    0.006805071047519352     0.0012918910616915346    -0.006810355396724143    0.0012866067124867393
0.21455817680235306       -0.002023665816153502    8.910371480781899E-7     6.902641286658096E-4     -0.0012836020061995287   0.006811061258414473     -0.0012889482290880056   -0.006805715035526002    0.006805715035526002     0.0012889482290880056    -0.006811061258414473    0.0012836020061995287
0.2152389365609633        -0.0020214576439062625   1.02625534716799E-6      6.920220623533682E-4     -0.0012717482723575457   0.0068140823032675       -0.0012779058044405614   -0.0068079247711844895   0.0068079247711844895    0.0012779058044405614    -0.0068140823032675      0.0012717482723575457
0.21707161178689263       -0.002014942809358193    1.3644628442232433E-6    6.966592825068648E-4     -0.0012391551001562548   0.006820616137276513     -0.001247341877221602    -0.00681242936021117     0.00681242936021117      0.001247341877221602     -0.006820616137276513    0.0012391551001562548
0.2175583590589752        -0.0020133446101955202   1.3910924539347798E-6    6.980739728833033E-4     -0.0012302200514960194   0.006823158389286056     -0.0012385666062196357   -0.006814811834562445    0.006814811834562445     0.0012385666062196357    -0.006823158389286056    0.0012302200514960194
0.22037906548210265       -0.002003084730178348    1.4600464224780826E-6    7.061879066913954E-4     -0.0011770376943236772   0.00683530122638971      -0.0011857979728585532   -0.006826540947854838    0.006826540947854838     0.0011857979728585532    -0.00683530122638971     0.0011770376943236772
0.22352104362441266       -0.0019913335372356055   2.1267873387837373E-6    7.139904178440654E-4     -0.0011203250410785949   0.006845009107863821     -0.0011330857651113044   -0.006832248383831115    0.006832248383831115     0.0011330857651113044    -0.006845009107863821    0.0011203250410785949
0.2235858081981256        -0.0019910913137168268   2.1405306524752082E-6    7.1415124846917E-4       -0.0011191560415995446   0.006845209213267757     -0.001131999225514403    -0.006832366029352902    0.006832366029352902     0.001131999225514403     -0.006845209213267757    0.0011191560415995446
0.2258026859854878        -0.0019834017032539066   2.3231358509707778E-6    7.20490249260335E-4      -0.0010778730019135585   0.0068557338111020615    -0.0010918118170193906   -0.006841794995996235    0.006841794995996235     0.0010918118170193906    -0.0068557338111020615   0.0010778730019135585