% Model:              Cylinder_slice_potential.mph
% Version:            COMSOL 6.2.0.339
% Date:               May 8 2024, 04:47
% Dimension:          1
% Nodes:              753
% Expressions:        11
% Description:        Line graph
% Arc length (m)          Magnetic scalar potential Magnetic scalar potential Magnetic scalar potential Magnetic scalar potential Magnetic scalar potential Magnetic scalar potential Magnetic scalar potential Magnetic scalar potential Magnetic scalar potential Magnetic scalar potential Magnetic scalar potential
0                         -0.0052225983689615256   -0.0048487583466960416   -1.6846776895139516E-7   -0.024992145649087       -0.0041017521732408975   0.0041004044310892765    -0.024990797906935362    0.024990797906935362     -0.0041004044310892765   0.0041017521732408975    0.024992145649087
0.001675992863147892      -0.005233349788138689    -0.004814962175379862    -7.100523964717635E-6    -0.024939988198275854    -0.0040065890457211      0.0039497848540033485    -0.02488318400655809     0.02488318400655809      -0.0039497848540033485   0.0040065890457211       0.024939988198275854
0.002920792443836772      -0.005241335121714875    -0.004789860958776677    -1.2249126226420786E-5   -0.024901249624665483    -0.003935909137805982    0.003837916127994606     -0.02480325661485409     0.02480325661485409      -0.003837916127994606    0.003935909137805982     0.024901249624665483
0.005376800527036226      -0.005257353319795608    -0.004737498098582229    -2.186680188256882E-5    -0.024814668142868195    -0.0037852548636857653   0.003610320448625205     -0.024639733727807617    0.024639733727807617     -0.003610320448625205    0.0037852548636857653    0.024814668142868195
0.0065954273125891655     -0.005265301259939211    -0.004711516594515682    -2.6638918574495295E-5   -0.02477170797772347     -0.0037105029379666263   0.0034973915893706537    -0.02455859662912748     0.02455859662912748      -0.0034973915893706537   0.0037105029379666263    0.02477170797772347
0.009094515670090822      -0.005279596788552381    -0.004657705563989742    -3.643705106075638E-5    -0.024678058473317027    -0.00355967131910751     0.0032681749106214493    -0.024386562064830954    0.024386562064830954     -0.0032681749106214493   0.00355967131910751      0.024678058473317027
0.009756335361274899      -0.0052839839072487075   -0.004642086978001304    -3.913848674152512E-5    -0.024650782695467447    -0.0035148470664726184   0.0032017391725404076    -0.024337674801535224    0.024337674801535224     -0.0032017391725404076   0.0035148470664726184    0.024650782695467447
0.011455302818064398      -0.005295246146788297    -0.004601992266905675    -4.607338361657067E-5    -0.02458076262875992     -0.0033997780416067346   0.0030311909726741604    -0.024212175559827326    0.024212175559827326     -0.0030311909726741604   0.0033997780416067346    0.02458076262875992
0.011635362231176638      -0.0052961812855566275   -0.0045978341274110655   -4.6779362299270676E-5   -0.024572982402543554    -0.0033882572603170466   0.0030140223619228726    -0.02419874750414936     0.02419874750414936      -0.0030140223619228726   0.0033882572603170466    0.024572982402543554
0.016145736877107564      -0.0053048940234378325   -0.004504394870766339    -6.492434310415167E-5    -0.024382670031591305    -0.0031630939378399815   0.0026436991930067592    -0.023863275286758075    0.023863275286758075     -0.0026436991930067592   0.0031630939378399815    0.024382670031591305
0.018537279786648625      -0.005316183819271525    -0.004455103519821555    -7.369769494031971E-5    -0.02429246897776901     -0.0030277337006829165   0.00243815214116035      -0.023702887418246433    0.023702887418246433     -0.00243815214116035     0.0030277337006829165    0.02429246897776901
0.019004132498651995      -0.005317706068359425    -0.004444857960713353    -7.548063823040092E-5    -0.024271908571780524    -0.00300108429834283     0.0023972391924996137    -0.0236680634659373      0.0236680634659373       -0.0023972391924996137   0.00300108429834283      0.024271908571780524
0.023987782230760146      -0.005333956067693409    -0.00433548668238066     -9.451354651500218E-5    -0.024052426368588824    -0.002716602097815193    0.001960493725695167     -0.023296317996468786    0.023296317996468786     -0.001960493725695167    0.002716602097815193     0.024052426368588824
0.02865836976065822       -0.005348327781234165    -0.0042374655530342505   -1.1412041618185897E-4   -0.023865533886298536    -0.002472222761361879    0.0015592594319069981    -0.022952570556843643    0.022952570556843643     -0.0015592594319069981   0.002472222761361879     0.023865533886298536
0.030431367348696132      -0.005352733478891811    -0.0042037178268099      -1.2045692682202363E-4   -0.02379844814550143     -0.0023875142299341953   0.0014238588153579971    -0.022834792730925226    0.022834792730925226     -0.0014238588153579971   0.0023875142299341953    0.02379844814550143
0.032404965384675494      -0.005356381719478669    -0.004164718303457336    -1.2711032154961476E-4   -0.02371535963552782     -0.002289832757613154    0.0012729501852162264    -0.022698477063130884    0.022698477063130884     -0.0012729501852162264   0.002289832757613154     0.02371535963552782
0.034017513464543486      -0.005357045496943465    -0.004129681448538838    -1.3311691215957806E-4   -0.023635602988141772    -0.0022074210003679173   0.0011424857030912833    -0.022570667690865125    0.022570667690865125     -0.0011424857030912833   0.0022074210003679173    0.023635602988141772
0.03448955110324693       -0.005357128126640943    -0.004119381871685349    -1.3482093074409672E-4   -0.023611685591314338    -0.002183173084750571    0.0011046056387977881    -0.022533118145361547    0.022533118145361547     -0.0011046056387977881   0.002183173084750571     0.023611685591314338
0.040344664786056625      -0.00535815305819861     -0.003991626819084784    -1.559574285822395E-4    -0.02331501628798055     -0.0018824040551861099   6.347446265281844E-4     -0.022067356859322613    0.022067356859322613     -6.347446265281844E-4    0.0018824040551861099    0.02331501628798055
0.04227228231154988       -0.0053593267060317844   -0.003952959652045982    -1.6234458692768877E-4   -0.023226910715912284    -0.0017896038917851519   4.90847196363632E-4      -0.021928154020490753    0.021928154020490753     -4.90847196363632E-4     0.0017896038917851519    0.023226910715912284
0.0457610823469126        -0.005361450894335601    -0.003882975844600659    -1.739047216363461E-4    -0.023067448209018578    -0.0016216446316761816   2.3040685858540338E-4    -0.021676210435927788    0.021676210435927788     -2.3040685858540338E-4   0.0016216446316761816    0.023067448209018578
0.04768603957498791       -0.005361373395553327    -0.0038463267042840913   -1.807326134642458E-4    -0.02298465735781593     -0.0015391637756026239   9.330286788864749E-5     -0.02153879645010194     0.02153879645010194      -9.330286788864749E-5    0.0015391637756026239    0.02298465735781593
0.05125213309787766       -0.005358179383795389    -0.0037668065652324144   -1.935435224507836E-4    -0.022790952553091173    -0.0013582350179096214   -1.9011316169665688E-4   -0.02124260437348488     0.02124260437348488      1.9011316169665688E-4    0.0013582350179096214    0.022790952553091173
0.0512655212354718        -0.005358156537315765    -0.0037665555457781566   -1.9359091909268802E-4   -0.02279034338833677     -0.0013577172390737127   -1.9101011366780138E-4   -0.021241616035595243    0.021241616035595243     1.9101011366780138E-4    0.0013577172390737127    0.02279034338833677
0.05495714011658532       -0.005351856893698036    -0.0036973399323030703   -2.066599764522708E-4    -0.022622373490114384    -0.001214945915322242    -4.383338962959338E-4    -0.02096909367849619     0.02096909367849619      4.383338962959338E-4     0.001214945915322242     0.022622373490114384
0.05744525741033446       -0.005347863932519738    -0.003648603298264737    -2.1538255429181212E-4   -0.022503067977000957    -0.0011116122469220025   -6.11448187412504E-4     -0.020780007542666436    0.020780007542666436     6.11448187412504E-4      0.0011116122469220025    0.022503067977000957
0.0596781632354112        -0.0053475583799417175   -0.0036010347460310225   -2.2258769851029212E-4   -0.02238857179201769     -9.983382722508199E-4    -7.823633158315267E-4    -0.02060787020393533     0.02060787020393533      7.823633158315267E-4     9.983382722508199E-4     0.02238857179201769
0.0609639037757735        -0.005346339946162848    -0.003578207871319907    -2.2666938154842044E-4   -0.02233398103247912     -9.486212478277264E-4    -8.647338045596469E-4    -0.020520625980091734    0.020520625980091734     8.647338045596469E-4     9.486212478277264E-4     0.02233398103247912
0.06211297767163558       -0.005343656228817318    -0.003553738059291257    -2.303233407983835E-4    -0.022269819998701965    -8.95195083432688E-4     -9.473916429543898E-4    -0.02042723327231487     0.02042723327231487      9.473916429543898E-4     8.95195083432688E-4      0.022269819998701965
0.06683595177052619       -0.00533262549567011     -0.0034531611609453705   -2.453420049227037E-4    -0.022006102493867162    -6.756005111867284E-4    -0.0012871355281949112   -0.02004336645448551     0.02004336645448551      0.0012871355281949112    6.756005111867284E-4     0.022006102493867162
0.07133848052507645       -0.005321965956522842    -0.0033685507130992807   -2.5934711379619057E-4   -0.02178697250752831     -4.991086814369404E-4    -0.0015756682289325941   -0.019712195597158755    0.019712195597158755     0.0015756682289325941    4.991086814369404E-4     0.02178697250752831
0.07218149801977543       -0.005319771536026903    -0.0033534654305141763   -2.620977327846902E-4    -0.02174833029473511     -4.6924415062750424E-4   -0.001627537711650027    -0.019651548432457564    0.019651548432457564     0.001627537711650027     4.6924415062750424E-4    0.02174833029473511
0.07424176797655903       -0.005314408541013437    -0.0033165981594372226   -2.688200341606392E-4    -0.021653891696981113    -3.962575329273724E-4    -0.0017543027403577507   -0.019503331423695973    0.019503331423695973     0.0017543027403577507    3.962575329273724E-4     0.021653891696981113
0.07655895119778255       -0.005304292994698142    -0.003271658828677729    -2.7629254086860807E-4   -0.021528732638903918    -3.1156066011135626E-4   -0.0018987796668375179   -0.019318392311955028    0.019318392311955028     0.0018987796668375179    3.1156066011135626E-4    0.021528732638903918
0.07856603051630064       -0.0052956493156547995   -0.003230845878839234    -2.828293141692745E-4    -0.021415153524504415    -2.325562618852216E-4    -0.0020300782514689844   -0.019152519011150195    0.019152519011150195     0.0020300782514689844    2.325562618852216E-4     0.021415153524504415
0.07898949631431254       -0.005293812107746975    -0.0032232950547419273   -2.8417908611325885E-4   -0.021394225724172787    -2.1897729318488726E-4   -0.002054455395721194    -0.01912079303526669     0.01912079303526669      0.002054455395721194     2.1897729318488726E-4    0.021394225724172787
0.08050451344822687       -0.005287239200390624    -0.0031962807647182723   -2.8900811275865435E-4   -0.0213193531459707      -1.703963444082078E-4    -0.002141668557661037    -0.019007288243901438    0.019007288243901438     0.002141668557661037     1.703963444082078E-4     0.0213193531459707
0.08214682792832229       -0.005281648762421088    -0.003165363649423661    -2.94193260702172E-4     -0.021236161515921864    -1.0956646623751611E-4   -0.002243979619379869    -0.01888261543030446     0.01888261543030446      0.002243979619379869     1.0956646623751611E-4    0.021236161515921864
0.08495625364801174       -0.0052720854781620145   -0.003112475277592317    -3.0306323546612035E-4   -0.021093849730965484    -5.507818317422999E-6    -0.0024189980654115493   -0.018669343847236494    0.018669343847236494     0.0024189980654115493    5.507818317422999E-6     0.021093849730965484
0.08625286073774809       -0.005267183564310983    -0.0030900193552871984   -3.0705612215346074E-4   -0.021032649683097423    3.6084574146508794E-5    -0.0024925335513742044   -0.01857620070586971     0.01857620070586971      0.0024925335513742044    -3.6084574146508794E-5   0.021032649683097423
0.08699463222442969       -0.005264523280958435    -0.0030767722925238122   -3.091475887858578E-4    -0.020995953794631754    6.21393292019841E-5      -0.0025353200394888564   -0.01852277308434487     0.01852277308434487      0.0025353200394888564    -6.21393292019841E-5     0.020995953794631754
0.08751963217734457       -0.005264142811033759    -0.0030676650943682604   -3.108356988686387E-4    -0.02097462370064687     8.194754348816431E-5     -0.002568633134437284    -0.01848793810969774     0.01848793810969774      0.002568633134437284     -8.194754348816431E-5    0.02097462370064687
0.09025290060288711       -0.005252496931222664    -0.003021044893679741    -3.1885735752276E-4      -0.020843557973575608    1.664297513150492E-4     -0.00271728861149714     -0.018292699113393502    0.018292699113393502     0.00271728861149714      -1.664297513150492E-4    0.020843557973575608
0.09029610926207508       -0.0052522385539420235   -0.0030203134821008533   -3.189613389012437E-4    -0.0208412629097916      1.6769130597649425E-4    -0.0027193820171864534   -0.018289572198581627    0.018289572198581627     0.0027193820171864534    -1.6769130597649425E-4   0.0208412629097916
0.09038263226620723       -0.005251796158340012    -0.0030186864246392903   -3.191977082557702E-4    -0.02083644242362099     1.7074220973905245E-4    -0.0027243238757852233   -0.018282860757574803    0.018282860757574803     0.0027243238757852233    -1.7074220973905245E-4   0.02083644242362099
0.10038452713117446       -0.005200656067396125    -0.0028306016738490762   -3.465215564853484E-4    -0.02027920338228089     5.234208873036126E-4     -0.0032955933391864093   -0.017507030930398078    0.017507030930398078     0.0032955933391864093    -5.234208873036126E-4    0.02027920338228089
0.10203005038071158       -0.0051942344389904055   -0.0028039801765855944   -3.507306362331524E-4    -0.020203331952670222    5.736058032914026E-4     -0.0033794508931566315   -0.01739748686280498     0.01739748686280498      0.0033794508931566315    -5.736058032914026E-4    0.020203331952670222
0.10324491282288253       -0.0051874521318460145   -0.002783173953303895    -3.537404419769681E-4    -0.020139387891511606    6.104206358724567E-4     -0.003440344171688211    -0.017309464355695837    0.017309464355695837     0.003440344171688211     -6.104206358724567E-4    0.020139387891511606
0.10657127451892769       -0.005168397822723372    -0.0027305889268006327   -3.622787888366823E-4    -0.019977677581195393    6.959137096981017E-4     -0.003594144020391569    -0.017079447270501907    0.017079447270501907     0.003594144020391569     -6.959137096981017E-4    0.019977677581195393
0.10722089872357168       -0.005164671028680674    -0.0027189199066613677   -3.639141131805151E-4    -0.01994175823006753     7.169258846551714E-4     -0.003628238790099301    -0.01703044532462339     0.01703044532462339      0.003628238790099301     -7.169258846551714E-4    0.01994175823006753
0.10763325832358696       -0.005162305385144306    -0.0027115128050743302   -3.649521620824763E-4    -0.019918957833841528    7.302637067357016E-4     -0.0036498810033955206   -0.016999340537181693    0.016999340537181693     0.0036498810033955206    -7.302637067357016E-4    0.019918957833841528
0.11492095469495331       -0.005117800742240012    -0.0025814591225421903   -3.8364100511317377E-4   -0.01951454287255931     9.566600964007415E-4     -0.004025788137306141    -0.016445414831653894    0.016445414831653894     0.004025788137306141     -9.566600964007415E-4    0.01951454287255931
0.12172093078036038       -0.0050673982021608      -0.0024725046145681164   -4.010313515333748E-4    -0.019156435654159466    0.0011131571544837353    -0.004321407966750741    -0.015948184841892445    0.015948184841892445     0.004321407966750741     -0.0011131571544837353   0.019156435654159466
0.1237772496247622        -0.005054090441367782    -0.0024397479770620657   -4.0543090840976936E-4   -0.01904914844756086     0.0011672133179102735    -0.004410660585188436    -0.015805701180282683    0.015805701180282683     0.004410660585188436     -0.0011672133179102735   0.01904914844756086
0.124822961719779         -0.005047322966344765    -0.0024230900486841727   -4.076682413267365E-4    -0.018994589044049014    0.0011947028213300497    -0.004456048751943949    -0.0157332431134351      0.0157332431134351       0.004456048751943949     -0.0011947028213300497   0.018994589044049014
0.127811859009195         -0.005027392603825425    -0.0023722065160015748   -4.1397827008438765E-4   -0.01882731783599314     0.0012822525793085562    -0.004594078739983665    -0.015515491675318016    0.015515491675318016     0.004594078739983665     -0.0012822525793085562   0.01882731783599314
0.13499916537431544       -0.004970084777739646    -0.002262950043813947    -4.291013065386591E-4    -0.018445424913075787    0.001434914197882801     -0.004867724650192082    -0.015012614460766495    0.015012614460766495     0.004867724650192082     -0.001434914197882801    0.018445424913075787
0.13523875750908787       -0.004968347412782086    -0.002259311510757144    -4.29638604113357E-4     -0.01843318377428905     0.0014402058768392986    -0.004877314709746163    -0.014996074941382173    0.014996074941382173     0.004877314709746163     -0.0014402058768392986   0.01843318377428905
0.13590411214863923       -0.004963522697495816    -0.0022492071938821153   -4.3113069580695345E-4   -0.018399189759865806    0.0014549010301174584    -0.004903946596573094    -0.014950144193410163    0.014950144193410163     0.004903946596573094     -0.0014549010301174584   0.018399189759865806
0.13786233984501342       -0.004948510476757352    -0.0022191774188459598   -4.355560984921153E-4    -0.018296777604021063    0.0014972643030083466    -0.004981713090945276    -0.014812328816084123    0.014812328816084123     0.004981713090945276     -0.0014972643030083466   0.018296777604021063
0.14020560665018134       -0.004930871850941632    -0.0021830064915720152   -4.409199897324318E-4    -0.018174443135529055    0.0015490442682374753    -0.005076404186096937    -0.014647083217669582    0.014647083217669582     0.005076404186096937     -0.0015490442682374753   0.018174443135529055
0.14070276332343673       -0.004927129570928105    -0.0021753323258165754   -4.420580139296159E-4    -0.018148488175024416    0.0015600301086880035    -0.005096494220124938    -0.01461202406358747     0.01461202406358747      0.005096494220124938     -0.0015600301086880035   0.018148488175024416
0.1431447454756317        -0.004908451729290224    -0.0021403108769919646   -4.4746696509675744E-4   -0.01802770394994339     0.0016061029672175082    -0.005185838687991576    -0.014447968229169314    0.014447968229169314     0.005185838687991576     -0.0016061029672175082   0.01802770394994339
0.14362873760621514       -0.004904749847865377    -0.002133369751063789    -4.485389998768862E-4    -0.018003764948429687    0.0016152344430318266    -0.005203546442046925    -0.014415452949414577    0.014415452949414577     0.005203546442046925     -0.0016152344430318266   0.018003764948429687
0.14431464241288788       -0.004898319654343166    -0.002123012597351897    -4.498326937348449E-4    -0.01796500787568142     0.0016282707416912451    -0.005226932291570011    -0.014366346325802646    0.014366346325802646     0.005226932291570011     -0.0016282707416912451   0.01796500787568142
0.14873740069155306       -0.004862516156670941    -0.0020520995511173405   -4.576720267501341E-4    -0.017712019073694456    0.0017380455529893066    -0.005399421766990388    -0.014050642859693369    0.014050642859693369     0.005399421766990388     -0.0017380455529893066   0.017712019073694456
0.14989410706402553       -0.004853152286591484    -0.0020335533029837653   -4.597222872173319E-4    -0.017645853631003607    0.0017667555153623251    -0.005444533813100988    -0.013968075333264935    0.013968075333264935     0.005444533813100988     -0.0017667555153623251   0.017645853631003607
0.15324437196584176       -0.004828479711164593    -0.001990530987688903    -4.660391811502667E-4    -0.017492709109996972    0.0018212097346613915    -0.005549523183863533    -0.013764395660794824    0.013764395660794824     0.005549523183863533     -0.0018212097346613915   0.017492709109996972
0.15395907365686234       -0.004822177113898658    -0.0019805063176710205   -4.673270796436553E-4    -0.017455181499385013    0.001833526956209616     -0.005572143593358867    -0.013716564862235752    0.013716564862235752     0.005572143593358867     -0.001833526956209616    0.017455181499385013
0.1575521310945435        -0.004791521297479807    -0.0019329497238607788   -4.738013320322865E-4    -0.01727709709467111     0.0018889880952481142    -0.005679398751506415    -0.0134866864384128      0.0134866864384128       0.005679398751506415     -0.0018889880952481142   0.01727709709467111
0.16211828548475493       -0.004750732968314729    -0.0018729371877183444   -4.8222951651183534E-4   -0.017049195565831846    0.0019537363074270684    -0.005811572439521759    -0.013191359433737148    0.013191359433737148     0.005811572439521759     -0.0019537363074270684   0.017049195565831846
0.16363598073066218       -0.004738341064542243    -0.001852087894368685    -4.8505601816057264E-4   -0.016973169884832846    0.001980194373336124     -0.005860642518620713    -0.013092721739548247    0.013092721739548247     0.005860642518620713     -0.001980194373336124    0.016973169884832846
0.16474305146769574       -0.004728448252277822    -0.0018365005241788638   -4.870618897208657E-4    -0.01691464563597571     0.0019991473731355725    -0.005895642490902506    -0.013018150518208767    0.013018150518208767     0.005895642490902506     -0.0019991473731355725   0.01691464563597571
0.16511352441352484       -0.004725191483705562    -0.001831191092667902    -4.877775401551342E-4    -0.01689506640603538     0.0020056995287868655    -0.005907919850027947    -0.012992846084794289    0.012992846084794289     0.005907919850027947     -0.0020056995287868655   0.01689506640603538
0.16661347309759078       -0.0047110250771196915   -0.0018114959487555557   -4.899084819557387E-4    -0.016816171928329016    0.0020279283801497455    -0.005947196235795663    -0.012896904072683093    0.012896904072683093     0.005947196235795663     -0.0020279283801497455   0.016816171928329016
0.1671562144304909        -0.004706007983210849    -0.0018043514356454265   -4.905917265632829E-4    -0.016787437179611116    0.0020365947532322696    -0.005961328565738541    -0.012862703367104843    0.012862703367104843     0.005961328565738541     -0.0020365947532322696   0.016787437179611116
0.1676411937783742        -0.00470201120966207     -0.0017981004690402393   -4.914213454497783E-4    -0.01676400920824398     0.0020440356304042948    -0.005975406394002529    -0.012832638444645744    0.012832638444645744     0.005975406394002529     -0.0020440356304042948   0.01676400920824398
0.17421459473839393       -0.004645485828956881    -0.001713277705495315    -5.029280016361844E-4    -0.016442516780944463    0.0021394265348830648    -0.0061628505479725485   -0.01241909276785497     0.01241909276785497      0.0061628505479725485    -0.0021394265348830648   0.016442516780944463
0.17608660062584655       -0.004628773077985119    -0.0016904169904151706   -5.056132856747064E-4    -0.016351250269914592    0.0021638420420258863    -0.006208748327423544    -0.012306343984516924    0.012306343984516924     0.006208748327423544     -0.0021638420420258863   0.016351250269914592
0.17820851993425693       -0.004608858501891527    -0.001662785513064033    -5.090705128363641E-4    -0.016242355594320624    0.002193078413245485     -0.006265642515936405    -0.012169791491629696    0.012169791491629696     0.006265642515936405     -0.002193078413245485    0.016242355594320624
0.18055439716322136       -0.004586842042360164    -0.0016322376721241059   -5.128926329526875E-4    -0.016121967632903404    0.0022254005365372463    -0.006328541600158753    -0.012018826569281896    0.012018826569281896     0.006328541600158753     -0.0022254005365372463   0.016121967632903404
0.1833156650632631        -0.004562380946133762    -0.0016006599305577358   -5.160632169944854E-4    -0.015990994551918686    0.0022585292326163632    -0.0063870349685722526   -0.011862488815962791    0.011862488815962791     0.0063870349685722526    -0.0022585292326163632   0.015990994551918686
0.18433285445360614       -0.004552690853084934    -0.0015885722968587074   -5.17308185303308E-4     -0.015940331337959236    0.002270432074380501     -0.0064088975568069705   -0.011801865855532761    0.011801865855532761     0.0064088975568069705    -0.002270432074380501    0.015940331337959236
0.18777951911788185       -0.004519856749994578    -0.0015476143195727876   -5.215266605635687E-4    -0.015768663100961807    0.0023107638990165057    -0.006482977183525061    -0.011596449816453245    0.011596449816453245     0.006482977183525061     -0.0023107638990165057   0.015768663100961807
0.18883942747773325       -0.004509613144352074    -0.0015352189714486855   -5.227106443099183E-4    -0.015715725780289888    0.002322726797118406     -0.006504411951597757    -0.01153404062581053     0.01153404062581053      0.006504411951597757     -0.002322726797118406    0.015715725780289888
0.18961377382076866       -0.004503000058219433    -0.0015263861609487105   -5.236800825590861E-4    -0.015679878929521354    0.0023321213033563786    -0.0065215619638290725   -0.011490438269048655    0.011490438269048655     0.0065215619638290725    -0.0023321213033563786   0.015679878929521354
0.19309328922345131       -0.004473284240143007    -0.0014866960397774001   -5.280362409503119E-4    -0.015518801563419475    0.002374335397152554     -0.006598625324755054    -0.011294511635816969    0.011294511635816969     0.006598625324755054     -0.002374335397152554    0.015518801563419475
0.1945992599263542        -0.004459667242526611    -0.001468911258974827    -5.300069745960737E-4    -0.015446096160362013    0.002392572809744434     -0.006632628606513029    -0.01120604036359341     0.01120604036359341      0.006632628606513029     -0.002392572809744434    0.015446096160362013
0.19734489741448744       -0.004434841169177823    -0.0014364866169843502   -5.33599952976396E-4     -0.015313542001214292    0.002425822675496999     -0.006694622299308172    -0.011044742377403114    0.011044742377403114     0.006694622299308172     -0.002425822675496999    0.015313542001214292
0.19995657084158275       -0.004409983993107174    -0.0014073180301974585   -5.372562872075959E-4    -0.01519094722563712     0.002448988746791575     -0.006747039044452348    -0.01089289692797634     0.01089289692797634      0.006747039044452348     -0.002448988746791575    0.01519094722563712
0.20391558796589648       -0.004372334783405274    -0.0013667804039053      -5.413649267139676E-4    -0.015010470485382333    0.0024788686482387634    -0.00680978806195051     -0.010679551071670578    0.010679551071670578     0.00680978806195051      -0.0024788686482387634   0.015010470485382333
0.20609694381229543       -0.004350000503711823    -0.0013421411308972525   -5.443125191973937E-4    -0.014903674476904993    0.0024963275379422997    -0.006850827691521455    -0.01054917432332583     0.01054917432332583      0.006850827691521455     -0.0024963275379422997   0.014903674476904993
0.2104535035770806        -0.004307280388914035    -0.0012978114546019458   -5.484915495842159E-4    -0.014701961339970785    0.0025271602156853555    -0.00691509261235909     -0.010314028943297044    0.010314028943297044     0.00691509261235909      -0.0025271602156853555   0.014701961339970785
0.21113137283155167       -0.004301316778297023    -0.0012905657184999423   -5.492733416486378E-4    -0.014671424078688437    0.0025338430344996523    -0.006928029767688763    -0.010277237345499322    0.010277237345499322     0.006928029767688763     -0.0025338430344996523   0.014671424078688437
0.2121818814170242        -0.004292074842463135    -0.0012793368451840077   -5.504849016512676E-4    -0.014624099827083377    0.0025441995427691612    -0.0069480787559793086   -0.010220220613873223    0.010220220613873223     0.0069480787559793086    -0.0025441995427691612   0.014624099827083377
0.2133084151844814        -0.0042820669396690225   -0.0012675386192318066   -5.516408259471369E-4    -0.014573313040822027    0.0025549547178540634    -0.006968081325431166    -0.010160186433244919    0.010160186433244919     0.006968081325431166     -0.0025549547178540634   0.014573313040822027
0.21440082362654836       -0.004272834978253652    -0.001257321295022396    -5.523334928832966E-4    -0.014526967813107694    0.0025643720999069153    -0.006983040042973295    -0.010108299870041308    0.010108299870041308     0.006983040042973295     -0.0025643720999069153   0.014526967813107694
0.21473788670834176       -0.004269986452696879    -0.001254168735363309    -5.525472155562161E-4    -0.014512667973708565    0.002567277837078952     -0.006987655561528688    -0.01009229024925882     0.01009229024925882      0.006987655561528688     -0.002567277837078952    0.014512667973708565
0.21492872363165794       -0.004268202962538919    -0.001252190098929036    -5.527253000708834E-4    -0.014503877422148497    0.0025689344280071832    -0.006990736828574258    -0.010082075021581415    0.010082075021581415     0.006990736828574258     -0.0025689344280071832   0.014503877422148497