% Model:              Cylinder_slice_potential_3.mph
% Version:            COMSOL 6.2.0.339
% Date:               May 16 2024, 16:03
% Dimension:          1
% Nodes:              846
% Expressions:        11
% Description:        Line graph
% Arc length (m)          Magnetic scalar potential Magnetic scalar potential Magnetic scalar potential Magnetic scalar potential Magnetic scalar potential Magnetic scalar potential Magnetic scalar potential Magnetic scalar potential Magnetic scalar potential Magnetic scalar potential Magnetic scalar potential
0                         0.001922676489180872     -0.01459423303196629     -2.1801393185544917E-7   -0.03993821817326455     -0.047628924129988       0.047627180018533215     -0.03993647406180968     0.03993647406180968      -0.047627180018533215    0.047628924129988        0.03993821817326455
6.816106620813501E-4      0.0019676066471960565    -0.014585013272993844    -2.3126393280996245E-5   -0.03991233209771341     -0.04778275868649759     0.04759774754024968      -0.03972732095146541     0.03972732095146541      -0.04759774754024968     0.04778275868649759      0.03991233209771341
8.300912749869936E-4      0.001977501432157615     -0.014583503283021718    -2.8238233301459785E-5   -0.03990845991795578     -0.04781846564658619     0.04759255978017457      -0.039682554051544076    0.039682554051544076     -0.04759255978017457     0.04781846564658619      0.03990845991795578
0.001444018763117414      0.002018413712610689     -0.014577259879707679    -4.937431997347565E-5    -0.03989244949379558     -0.047966104344238286    0.04757110978445053      -0.03949745493400774     0.03949745493400774      -0.04757110978445053     0.047966104344238286     0.03989244949379558
0.008770011401992225      0.002503539029481412     -0.014502497913836065    -2.9802965465754085E-4   -0.03969253430117554     -0.04970669041910117     0.0473224531818409       -0.03730829706391519     0.03730829706391519      -0.0473224531818409      0.04970669041910117      0.03969253430117554
0.012901439922299137      0.002762805361001357     -0.014446360405852732    -4.424696812755453E-4    -0.03958334922065767     -0.05063457066466308     0.04709481321445877      -0.03604359177045327     0.03604359177045327      -0.04709481321445877     0.05063457066466308      0.03958334922065767
0.014648420570329472      0.002870879235806114     -0.014423112243501623    -5.012388868279115E-4    -0.03953253380620429     -0.05101605074942873     0.0470061396548055       -0.03552262271158097     0.03552262271158097      -0.0470061396548055      0.05101605074942873      0.03953253380620429
0.01665305660543265       0.0029977767901571833    -0.01439650869145534     -5.721616000919937E-4    -0.03948261889441963     -0.051473726055048324    0.04689643325431246      -0.034905326093683645    0.034905326093683645     -0.04689643325431246     0.051473726055048324     0.03948261889441963
0.017669732517131546      0.003062273470946667     -0.014388365398021671    -6.061073096590972E-4    -0.03946497849080807     -0.05171407237459468     0.046865213897322        -0.03461612001353525     0.03461612001353525      -0.046865213897322       0.05171407237459468      0.03946497849080807
0.01894921274273415       0.0031399144326825245    -0.014373791921886075    -6.508631181291144E-4    -0.03944499937280964     -0.05200465710353968     0.04679775215850686      -0.034238094427776686    0.034238094427776686     -0.04679775215850686     0.05200465710353968      0.03944499937280964
0.023927871331218264      0.003447899945678762     -0.014312161831334907    -8.235447311139188E-4    -0.03933486452710288     -0.05312646430981786     0.04653810646090661      -0.03274650667819148     0.03274650667819148      -0.04653810646090661     0.05312646430981786      0.03933486452710288
0.025466003260154225      0.003544311007593372     -0.014292942525909014    -8.784400801757706E-4    -0.039303965883243384    -0.053481209913616795    0.04645368927221074      -0.03227644524183716     0.03227644524183716      -0.04645368927221074     0.053481209913616795     0.039303965883243384
0.026820079762903012      0.0036291853614038054    -0.0142760230345528      -9.267665604187681E-4    -0.039276764622525856    -0.05379350606814101     0.046379373584790974     -0.03186263213917566     0.03186263213917566      -0.046379373584790974    0.05379350606814101      0.039276764622525856
0.03262450254878396       0.00399228923950161      -0.014205013516463982    -0.0011314673509086996   -0.039156331474023504    -0.0551254884320299      0.04607374962476041      -0.030104592666753867    0.030104592666753867     -0.04607374962476041     0.0551254884320299       0.039156331474023504
0.03366789010055103       0.004053614837132506     -0.014190900328083067    -0.0011682656262365135   -0.039138533814930224    -0.05535299316346021     0.04600686815356819      -0.029792408805038074    0.029792408805038074     -0.04600686815356819     0.05535299316346021      0.039138533814930224
0.035733339882641026      0.004175012626524143     -0.0141629624043302      -0.0012411100737559422   -0.03910330225496607     -0.0558033527610626      0.04587447217101516      -0.029174421664918487    0.029174421664918487     -0.04587447217101516     0.0558033527610626       0.03910330225496607
0.040738719603506904      0.004477049834108747     -0.014115862446431822    -0.001419128963755546    -0.039070003526100135    -0.056978202862535104    0.045625171152490804     -0.02771697181605573     0.02771697181605573      -0.045625171152490804    0.056978202862535104     0.039070003526100135
0.04143676277228087       0.004518699905897719     -0.014106985497988384    -0.0014441562117714808   -0.039060181529255625    -0.05713498115284649     0.0455817314586747       -0.027506931835083744    0.027506931835083744     -0.0455817314586747      0.05713498115284649      0.039060181529255625
0.04454310477657603       0.004704045702930914     -0.014067482442800221    -0.0015555292546455414   -0.03901647294112098     -0.05783265575284463     0.045388421715680353     -0.02657223890395662     0.02657223890395662      -0.045388421715680353    0.05783265575284463      0.03901647294112098
0.048522260907428755      0.004941184900587696     -0.01401502442672654     -0.0016983569186289037   -0.03895613115351982     -0.0587208707558706      0.045134015406839416     -0.025369275804488563    0.025369275804488563     -0.045134015406839416    0.0587208707558706       0.03895613115351982
0.04971232939009943       0.0050125064459632775    -0.014003208667494979    -0.0017418139358372242   -0.03895186885390725     -0.05900189463776036     0.04506738315106261      -0.025017357367209433    0.025017357367209433     -0.04506738315106261     0.05900189463776036      0.03895186885390725
0.05424474394649011       0.0052755617356134       -0.013955635150798       -0.0019054446312819773   -0.03893756050629509     -0.06003980744874869     0.04479625039849291      -0.02369400345603926     0.02369400345603926      -0.04479625039849291     0.06003980744874869      0.03893756050629509
0.06040576176658117       0.005627296708297702     -0.013877125925371431    -0.0021291283093945817   -0.03889329759709721     -0.061402484430288014    0.04436945795513139      -0.021860271121940535    0.021860271121940535     -0.04436945795513139     0.061402484430288014     0.03889329759709721
0.061242944762986376      0.005675091820561798     -0.013866457787328763    -0.0021595233151156462   -0.03888728298132527     -0.061587650263572456    0.04431146374264733      -0.02161109646040008     0.02161109646040008      -0.04431146374264733     0.061587650263572456     0.03888728298132527
0.062372959362265515      0.005739961391752117     -0.013855977503062857    -0.002201158212995628    -0.03889264257766685     -0.0618524881446753      0.044243222440710314     -0.021283376873701798    0.021283376873701798     -0.044243222440710314    0.0618524881446753       0.03889264257766685
0.06635485619163464       0.00596490226253117      -0.01381515827016495     -0.002346741382235529    -0.03890263581437462     -0.06276224486449929     0.043988313806615095     -0.020128704756490368    0.020128704756490368     -0.043988313806615095    0.06276224486449929      0.03890263581437462
0.06790405959844933       0.006049955491088922     -0.013798844909447102    -0.002404156914517991    -0.03891325140423542     -0.0631130733685911      0.0438798180524472       -0.01967999608809147     0.01967999608809147      -0.0438798180524472      0.0631130733685911       0.03891325140423542
0.07069408122035277       0.006202130331652676     -0.013766517221630699    -0.002507739967255386    -0.03892625087060829     -0.06373477219721897     0.04367285245917592      -0.018864331132565172    0.018864331132565172     -0.04367285245917592     0.06373477219721897      0.03892625087060829
0.07172906658371497       0.006258768068132919     -0.013754618241014708    -0.002546113474627876    -0.0389307724852898      -0.06396584475782145     0.043596936960798485     -0.01856186468826676     0.01856186468826676      -0.043596936960798485    0.06396584475782145      0.0389307724852898
0.07816116308037399       0.006610753129264435     -0.013680669957064809    -0.00278459230831234     -0.03895887284591491     -0.06540188536297263     0.04312514689647397      -0.01668213437941618     0.01668213437941618      -0.04312514689647397     0.06540188536297263      0.03895887284591491
0.08093252203077049       0.006764322328816689     -0.013647424838332575    -0.0028874132061222513   -0.03896328268185335     -0.0660205719971201      0.042921266348142126     -0.015863977032875325    0.015863977032875325     -0.042921266348142126    0.0660205719971201       0.03896328268185335
0.08480307433743821       0.00697143500301099      -0.013600668118604189    -0.0030312905837557476   -0.038984296684813576    -0.06687003669685751     0.042619712026811585     -0.014733972014767576    0.014733972014767576     -0.042619712026811585    0.06687003669685751      0.038984296684813576
0.08986023455984969       0.0072431004208554       -0.01354980065777751     -0.003220153191430379    -0.039043813897343245    -0.06801621558076482     0.042254990049321844     -0.013282588365900197    0.013282588365900197     -0.042254990049321844    0.06801621558076482      0.039043813897343245
0.09060148359358108       0.007282919552466651     -0.013542344802212752    -0.0032478355703327516   -0.03905253758303596     -0.06818421579290254     0.04220153123024058      -0.013069853020373926    0.013069853020373926     -0.04220153123024058     0.06818421579290254      0.03905253758303596
0.09396098446309167       0.00746177323894279      -0.013509199367309566    -0.003375728392611599    -0.03910696519448951     -0.06895405815026064     0.04194823100936791      -0.0121011380535967      0.0121011380535967       -0.04194823100936791     0.06895405815026064      0.03910696519448951
0.09751835208541505       0.007644390932595146     -0.013473802380702404    -0.0035114065754578636   -0.03917825157874837     -0.06975581530912892     0.04166456270546608      -0.011086998975085447    0.011086998975085447     -0.04166456270546608     0.06975581530912892      0.03917825157874837
0.09807402503119567       0.007673017333382475     -0.013468321415637937    -0.003532572472192649    -0.03918921946891945     -0.06988128880244932     0.04162070902490819      -0.010928639691378242    0.010928639691378242     -0.04162070902490819     0.06988128880244932      0.03918921946891945
0.10051815103333413       0.007798930482552736     -0.013444213405102965    -0.003625670613753954    -0.03923746170521924     -0.07043318363543015     0.04142781872539858      -0.010232096795187589    0.010232096795187589     -0.04142781872539858     0.07043318363543015      0.03923746170521924
0.10766652811051404       0.008169865325781036     -0.013367988171023535    -0.0038978890632453637   -0.03935579011448998     -0.07203525141761409     0.040852138911651265     -0.00817267760852706     0.00817267760852706      -0.040852138911651265    0.07203525141761409      0.03935579011448998
0.10838888998756085       0.008207522261702287     -0.013360596035377823    -0.003925337978817195    -0.03936809549799768     -0.07219818454480677     0.040795480714269305     -0.007965391667460098    0.007965391667460098     -0.040795480714269305    0.07219818454480677      0.03936809549799768
0.1085721315865341        0.008216823646286921     -0.013358170669659641    -0.003932305881470483    -0.03937008824228701     -0.07223738282743467     0.04077893577567088      -0.007911641190523136    0.007911641190523136     -0.04077893577567088     0.07223738282743467      0.03937008824228701
0.10922589185099763       0.008249568530436858     -0.013352005799593109    -0.0039573189424981095   -0.03938615610789805     -0.07238443022964546     0.040725878689660655     -0.007727604567913165    0.007727604567913165     -0.040725878689660655    0.07238443022964546      0.03938615610789805
0.11999036347022332       0.008788728518075564     -0.013250498301394457    -0.004369170809577867    -0.03965072110634371     -0.07480563517864591     0.03985226870202309      -0.00469735462972077     0.00469735462972077      -0.03985226870202309     0.07480563517864591      0.03965072110634371
0.1213227817680724        0.008855334917724493     -0.013238105972650512    -0.004420625834122761    -0.03968615141899361     -0.07510749108989154     0.039742484416909536     -0.004321144746011501    0.004321144746011501     -0.039742484416909536    0.07510749108989154      0.03968615141899361
0.12204711105525816       0.008891549030019135     -0.013230197473203772    -0.004448774316026868    -0.03970259162368052     -0.07526878774375703     0.03967859321554217      -0.004112397095465575    0.004112397095465575     -0.03967859321554217     0.07526878774375703      0.03970259162368052
0.12317379770346172       0.008947879703817302     -0.013217895884835606    -0.004492558985913374    -0.03972816419052571     -0.07551968300579488     0.03957921111848797      -0.0037876923032187115   0.0037876923032187115    -0.03957921111848797     0.07551968300579488      0.03972816419052571
0.12385930250725141       0.008982304785697705     -0.013212200852532092    -0.0045194999168599315   -0.03974999265364059     -0.07567921179643138     0.03952321246155202      -0.0035939933187611366   0.0035939933187611366    -0.03952321246155202     0.07567921179643138      0.03974999265364059
0.12436094211651492       0.009007496417511054     -0.01320803333428323     -0.004539214786833874    -0.039765966315163076    -0.07579595198520725     0.039482233690536356     -0.0034522480204920774   0.0034522480204920774    -0.039482233690536356    0.07579595198520725      0.039765966315163076
0.12772955955134566       0.009171280976234663     -0.013175971495185568    -0.004670373161523064    -0.03986684517917963     -0.07655196908411824     0.03918898379193382      -0.002503859886995107    0.002503859886995107     -0.03918898379193382     0.07655196908411824      0.03986684517917963
0.1312606858544376        0.009344253394684917     -0.01314540435552692     -0.004807267435643183    -0.039976776019783646    -0.07735378959852328     0.03889565011337792      -0.0015186365346381838   0.0015186365346381838    -0.03889565011337792     0.07735378959852328      0.039976776019783646
0.1322320638163066        0.00939210688429993      -0.01313828790666303     -0.004845383084872948    -0.04001218229088101     -0.0775806098280807      0.038817545149097216     -0.001249117611897422    0.001249117611897422     -0.038817545149097216    0.0775806098280807       0.04001218229088101
0.13393146169394207       0.009475825191572144     -0.013125837883530604    -0.004912065319747964    -0.04007412454643937     -0.07797742531272792     0.0386809027547443       -7.776019884556545E-4    7.776019884556545E-4     -0.0386809027547443      0.07797742531272792      0.04007412454643937
0.1352151381904291        0.009538870413462032     -0.013117284784698521    -0.004961888741862773    -0.040121668494622585    -0.07827715014847064     0.038582040213568584     -4.2655855972039005E-4   4.2655855972039005E-4    -0.038582040213568584    0.07827715014847064      0.040121668494622585
0.1362935861165336        0.00959082549414856      -0.013107259461019677    -0.005004407682130226    -0.04015775812328281     -0.07852106009987699     0.03848579864283529      -1.2249666624098354E-4   1.2249666624098354E-4    -0.03848579864283529     0.07852106009987699      0.04015775812328281
0.1369111543799198        0.009619905077191154     -0.013101654940681507    -0.0050283245185798395   -0.04017845274198156     -0.07865807305074612     0.038431476902107534     4.8143406657159555E-5    -4.8143406657159555E-5   -0.038431476902107534    0.07865807305074612      0.04017845274198156
0.13934757400541348       0.009734629344979259     -0.013079544084031398    -0.005122680807852298    -0.040260096793544864    -0.07919861417346186     0.03821716771064357      7.213496692735378E-4     -7.213496692735378E-4    -0.03821716771064357     0.07919861417346186      0.040260096793544864
0.14169983243315065       0.00984803586700593      -0.013066031072032896    -0.005213970444863807    -0.04035790326154206     -0.07975004672956575     0.03803828317065539      0.0013538602973684076    -0.0013538602973684076   -0.03803828317065539     0.07975004672956575      0.04035790326154206
0.14534757658039946       0.01002070241040924      -0.01303708105824399     -0.005357545573577386    -0.040500020648223035    -0.08058283028985994     0.03772246570124095      0.002360343940396073     -0.002360343940396073    -0.03772246570124095     0.08058283028985994      0.040500020648223035
0.14576952574682567       0.010040675440621259     -0.013033732294270104    -0.0053741534834073346   -0.04051645993519713     -0.0806791616976821      0.03768593383042354      0.0024767679320615607    -0.0024767679320615607   -0.03768593383042354     0.0806791616976821       0.04051645993519713
0.1474344621563893        0.010119418139871834     -0.013019738862727653    -0.005439945195520786    -0.04058016109052245     -0.08105783365000972     0.037538272085843524     0.002939400473643876     -0.002939400473643876    -0.037538272085843524    0.08105783365000972      0.04058016109052245
0.1482262301165522        0.010157173043016946     -0.013014148425486158    -0.005471568975427636    -0.04061437509213513     -0.08124306726420284     0.03747051546078187      0.0031581767112859767    -0.0031581767112859767   -0.03747051546078187     0.08124306726420284      0.04061437509213513
0.14951285943793807       0.010217409703980582     -0.013005329787507744    -0.005522193054616847    -0.04066994217302946     -0.08153958098895171     0.03736203655201705      0.0035076022639053362    -0.0035076022639053362   -0.03736203655201705     0.08153958098895171      0.04066994217302946
0.15319798648256186       0.01039047747484083      -0.012978374653032846    -0.005667371542251596    -0.04082365517842327     -0.08238556507778652     0.03704659273977387      0.004515317159589506     -0.004515317159589506    -0.03704659273977387     0.08238556507778652      0.04082365517842327
0.1540767939558875        0.010431749661276215     -0.01297194655073564     -0.005701992856077306    -0.04086031175396372     -0.08258731039906851     0.036971367550450183     0.004755631094654732     -0.004755631094654732    -0.036971367550450183    0.08258731039906851      0.04086031175396372
0.1547717073258991        0.010464472107238536     -0.012966815144862346    -0.0057293429108682585   -0.04088887286358301     -0.08274676129253708     0.036912018005591136     0.0049458704233630675    -0.0049458704233630675   -0.036912018005591136    0.08274676129253708      0.04088887286358301
0.15495852798046514       0.01047306974477323      -0.012965460034604527    -0.005736697811652713    -0.040897031860877994    -0.08278931083997083     0.036895728346749264     0.004996550632343715     -0.004996550632343715    -0.036895728346749264    0.08278931083997083      0.040897031860877994
0.155770825858926         0.010510814508621973     -0.012960266638956944    -0.005768900796858854    -0.040934774087062316    -0.08297803212155012     0.03682682574667943      0.00521643228780852      -0.00521643228780852     -0.03682682574667943     0.08297803212155012      0.040934774087062316
0.15934927096318385       0.010677092876431859     -0.012937387986036185    -0.005910765767590722    -0.041101041275607736    -0.08380941278133511     0.03652328664060945      0.0061850848651180505    -0.0061850848651180505   -0.03652328664060945     0.08380941278133511      0.041101041275607736
0.16131718453524604       0.01076899745123688      -0.012925229681828746    -0.005987927111584355    -0.041189402589349895    -0.08426539239429734     0.03636197550162262      0.0067140143033249545    -0.0067140143033249545   -0.03636197550162262     0.08426539239429734      0.041189402589349895
0.1614202390832273        0.010773755966134826     -0.012924629503899386    -0.005992066541158034    -0.041194642744060636    -0.08428966660859988     0.03635313427933573      0.0067418895852036365    -0.0067418895852036365   -0.03635313427933573     0.08428966660859988      0.041194642744060636
0.16358639648578535       0.010873777677677783     -0.012912014050336228    -0.006079075374722781    -0.041304788294544245    -0.08479989900525531     0.03616729600747319      0.00732781470323801      -0.00732781470323801     -0.03616729600747319     0.08479989900525531      0.041304788294544245
0.16547076457090407       0.010960149893916572     -0.01289926453785787     -0.006152565040589074    -0.04138775398809677     -0.08522835356376297     0.03600783323905051      0.007832766336615834     -0.007832766336615834    -0.03600783323905051     0.08522835356376297      0.04138775398809677
0.16786266174459294       0.011070899268610445     -0.012885968790900067    -0.006246805763623981    -0.04150333088997524     -0.08578692796441695     0.03581248185542523      0.008471115219016612     -0.008471115219016612    -0.03581248185542523     0.08578692796441695      0.04150333088997524
0.17061054782478188       0.011197308581936245     -0.012872986281456642    -0.006356192362571504    -0.041649111130783456    -0.08643834545852837     0.03558880655795646      0.009200427769788586     -0.009200427769788586    -0.03558880655795646     0.08643834545852837      0.041649111130783456
0.17085351020645517       0.01120845456628131      -0.012871757672013364    -0.006365991149812385    -0.04166232848272701     -0.08649614674785218     0.035568217549353236     0.009265600715772076     -0.009265600715772076    -0.035568217549353236    0.08649614674785218      0.04166232848272701
0.1712905077901464        0.011228323266798085     -0.012869161687803898    -0.006383138182269093    -0.041683391258891894    -0.08659668432608418     0.035531578867931554     0.009381714199260857     -0.009381714199260857    -0.035531578867931554    0.08659668432608418      0.041683391258891894
0.1716578579503652        0.011245025350723869     -0.012866979444123698    -0.006397552369796269    -0.04170109711010843     -0.08668119851300385     0.03550077955463382      0.009479321848261727     -0.009479321848261727    -0.03550077955463382     0.08668119851300385      0.04170109711010843
0.1738046027749974        0.011342353690598918     -0.012853763519494646    -0.006482482577734943    -0.041806513488225866    -0.08717592825062148     0.035316067628742065     0.010053347133653679     -0.010053347133653679    -0.035316067628742065    0.08717592825062148      0.041806513488225866
0.1744081389539398        0.011370054410270027     -0.012850267227441129    -0.006505632606539038    -0.041833223287939474    -0.08731344092901953     0.035268380076707344     0.010211837564372835     -0.010211837564372835    -0.035268380076707344    0.08731344092901953      0.041833223287939474
0.17538902671881962       0.011414959295489274     -0.012846189623288937    -0.006544829434597712    -0.0418879680172791      -0.08754780519923615     0.03518916972245457      0.010470667459502599     -0.010470667459502599    -0.03518916972245457     0.08754780519923615      0.0418879680172791
0.17567539869423282       0.011427920723852741     -0.012844926267036014    -0.006556155755224863    -0.041903560374302       -0.08761524326971291     0.035165997227914136     0.010545685667496899     -0.010545685667496899    -0.035165997227914136    0.08761524326971291      0.041903560374302
0.17756107754463724       0.011513268081256519     -0.012836607421718755    -0.006630736388433452    -0.04200623165637703     -0.08805930398140306     0.03501341287393556      0.011039659451090592     -0.011039659451090592    -0.03501341287393556     0.08805930398140306      0.04200623165637703
0.17984174494196178       0.01161599523908374      -0.012825324993509       -0.006720817080331402    -0.04212725282368512     -0.08859123378002003     0.03482469713736894      0.011639283818966088     -0.011639283818966088    -0.03482469713736894     0.08859123378002003      0.04212725282368512
0.18240732685400035       0.011731704186000502     -0.012811802996168204    -0.006822059237950576    -0.04226023756830591     -0.08918705431230785     0.03461058040870338      0.012316236335298703     -0.012316236335298703    -0.03461058040870338     0.08918705431230785      0.04226023756830591
0.1824188731438667        0.011732235133718242     -0.012811780186113246    -0.006822517683783009    -0.04226094102603529     -0.08918988156090818     0.03460974009064425      0.012319200444228788     -0.012319200444228788    -0.03460974009064425     0.08918988156090818      0.04226094102603529
0.1829620811212036        0.011757214156344939     -0.012810707061849103    -0.006844085775026009    -0.042294035972961476    -0.08932289259834117     0.034570206398133206     0.012458650227246609     -0.012458650227246609    -0.034570206398133206    0.08932289259834117      0.042294035972961476
0.18607555359756958       0.011896378946820777     -0.012796959488280534    -0.006967090622186494    -0.04246648305994603     -0.09005199884722906     0.03431527386973725      0.013270241917545927     -0.013270241917545927    -0.03431527386973725     0.09005199884722906      0.04246648305994603
0.18612645520300225       0.011898654127124663     -0.012796734731655655    -0.006969101606463373    -0.042469302366571135    -0.09006391887506972     0.03431110602336287      0.013283510485135853     -0.013283510485135853    -0.03431110602336287     0.09006391887506972      0.042469302366571135
0.1872005054526279        0.011946983984338182     -0.012792353815849465    -0.007011684003610426    -0.04252982949331374     -0.09031776543066639     0.03422429340178312      0.013563642535569674     -0.013563642535569674    -0.03422429340178312     0.09031776543066639      0.04252982949331374
0.1874744620690785        0.011959485509159328     -0.012791481935790617    -0.007022507929283399    -0.0425455065061868      -0.09038344854282404     0.03420338510855698      0.0136345569280804       -0.0136345569280804      -0.03420338510855698     0.09038344854282404      0.0425455065061868
0.18836308469777002       0.01199961919369384      -0.012787564499463997    -0.007057781350045839    -0.04259458051118767     -0.09059305728596295     0.03413080648559638      0.013867670289179044     -0.013867670289179044    -0.03413080648559638     0.09059305728596295      0.04259458051118767
0.1885058285006103        0.012005882401624453     -0.01278658693040993     -0.007063419264964187    -0.04260167304783764     -0.09062520265433538     0.03411784853462201      0.013905681071875862     -0.013905681071875862    -0.03411784853462201     0.09062520265433538      0.04260167304783764
0.18875519376082672       0.012016823867693947     -0.012784879173178467    -0.007073268379901011    -0.04261406330375156     -0.0906813587745273      0.03409521173531932      0.013972083735456536     -0.013972083735456536    -0.03409521173531932     0.0906813587745273       0.04261406330375156
0.1888658877992257        0.012021848928702802     -0.012784352858655675    -0.007077642884527414    -0.042619932256671086    -0.09070732797148223     0.034086184895263036     0.014001210819548235     -0.014001210819548235    -0.034086184895263036    0.09070732797148223      0.042619932256671086
0.18900775792325616       0.012028289257729531     -0.01278367831188055     -0.007083249433198831    -0.04262745415297793     -0.09074061118389597     0.03407461571830545      0.01403854131261273      -0.01403854131261273     -0.03407461571830545     0.09074061118389597      0.04262745415297793
0.18927876913366354       0.012040505895242321     -0.012782620984526195    -0.007093880153478555    -0.04264237177700818     -0.09080439535797738     0.03405335413014907      0.014108669450820278     -0.014108669450820278    -0.03405335413014907     0.09080439535797738      0.04264237177700818
0.1893140122998947        0.012042094585931544     -0.01278248348628893     -0.007095262606408867    -0.04264431171263918     -0.09081269005636529     0.034050589205094475     0.01411778913863177      -0.01411778913863177     -0.034050589205094475    0.09081269005636529      0.04264431171263918
0.18938265397835252       0.012045233624789878     -0.01278218039521685     -0.007097999682579733    -0.04264807266638973     -0.09082900716554917     0.034045009704911436     0.014135924794248144     -0.014135924794248144    -0.034045009704911436    0.09082900716554917      0.04264807266638973
0.18951326508038727       0.012050982974495653     -0.012781527893478677    -0.007103212710880144    -0.04265546857496531     -0.09085940047294785     0.03403369878590682      0.014170233112075853     -0.014170233112075853    -0.03403369878590682     0.09085940047294785      0.04265546857496531