% Model:              Cylinder_slice_potential_3.mph
% Version:            COMSOL 6.2.0.339
% Date:               May 16 2024, 16:03
% Dimension:          1
% Nodes:              771
% Expressions:        11
% Description:        Line graph
% Arc length (m)          Magnetic scalar potential Magnetic scalar potential Magnetic scalar potential Magnetic scalar potential Magnetic scalar potential Magnetic scalar potential Magnetic scalar potential Magnetic scalar potential Magnetic scalar potential Magnetic scalar potential Magnetic scalar potential
0                         0.001922676489180872     -0.01459423303196629     -2.180139318554695E-7    -0.03993821817326455     -0.047628924129988       0.047627180018533215     -0.03993647406180969     0.03993647406180969      -0.047627180018533215    0.047628924129988        0.03993821817326455
1.297097131470995E-4      0.0019141263325709273    -0.01459598754133378     4.141423910517E-6        -0.03994314426321742     -0.04759964959350108     0.04763278098478528      -0.039976275654501535    0.039976275654501535     -0.04763278098478528     0.04759964959350108      0.03994314426321742
9.181821480887227E-4      0.0018616661672122112    -0.014604864435129757    3.106245123963518E-5     -0.03996701116600631     -0.04741367583485511     0.04766217544477225      -0.04021551077592336     0.04021551077592336      -0.04766217544477225     0.04741367583485511      0.03996701116600631
0.0010171999183047373     0.00185507812637681      -0.014605979211235008    3.4443241714892644E-5    -0.03997000841409184     -0.04739032091959903     0.04766586685331822      -0.04024555434781094     0.04024555434781094      -0.04766586685331822     0.04739032091959903      0.03997000841409184
0.007304112309594303      0.0014381896379534898    -0.01467523261597883     2.4806428376754954E-4    -0.040157061436959324    -0.04590981998877324     0.04789433425891369      -0.04214157570709968     0.04214157570709968      -0.04789433425891369     0.04590981998877324      0.040157061436959324
0.009029430828286424      0.0013223180365713946    -0.01469764224131693     3.0527960198148266E-4    -0.04022717224288208     -0.04551644438916762     0.04795868120501953      -0.0426694090587339      0.0426694090587339       -0.04795868120501953     0.04551644438916762      0.04022717224288208
0.014526485145358033      9.497505716799508E-4     -0.01475657397598217     4.905097814038908E-4     -0.04040818165897106     -0.044207183945690814    0.048131262196921994     -0.044332259910202135    0.044332259910202135     -0.048131262196921994    0.044207183945690814     0.04040818165897106
0.014935839758908616      9.220062195569392E-4     -0.014760962504106193    5.04303501484095E-4      -0.040421661067268334    -0.04410968594549604     0.04814411395736885      -0.04445608907914104     0.04445608907914104      -0.04814411395736885     0.04410968594549604      0.040421661067268334
0.015702856483024944      8.695910668328258E-4     -0.014769523561642364    5.2967083675696E-4       -0.04045070520423361     -0.043929069471564865    0.0481664361656206       -0.044688071898289244    0.044688071898289244     -0.0481664361656206      0.043929069471564865     0.04045070520423361
0.019280937538048194      6.226134245933676E-4     -0.0148144053027849      6.484536037609692E-4     -0.040604174644124094    -0.04309462834249751     0.048282257172585316     -0.04579180347421181     0.04579180347421181      -0.048282257172585316    0.04309462834249751      0.040604174644124094
0.0214123713084672        4.723712969172635E-4     -0.014838892858806449    7.195351052762635E-4     -0.04069379556147976     -0.04258328074914877     0.04833956159135893      -0.04645007640368983     0.04645007640368983      -0.04833956159135893     0.04258328074914877      0.04069379556147976
0.02603107426731926       1.528973994523039E-4     -0.014881414456643718    8.725163655196447E-4     -0.040848383108947985    -0.04145997270675715     0.048440103630914354     -0.04782851403310509     0.04782851403310509      -0.048440103630914354    0.04145997270675715      0.040848383108947985
0.02982454809901413       -1.1619960138107873E-4   -0.01492566737390608     9.971795371182877E-4     -0.04102068317600725     -0.04055588477048289     0.04853332106742925      -0.0489981194729535      0.0489981194729535       -0.04853332106742925     0.04055588477048289      0.04102068317600725
0.03171962517777967       -2.5087574393808996E-4   -0.014948639488309776    0.001060019243822262     -0.041107592977516476    -0.04010409000176406     0.04858424395234221      -0.04958774692809452     0.04958774692809452      -0.04858424395234221     0.04010409000176406      0.041107592977516476
0.032199789989314165      -2.8436587837873923E-4   -0.014953364126025765    0.001075832234750563     -0.041125495195832536    -0.03998803168231752     0.048594689560322084     -0.049732153073836986    0.049732153073836986     -0.048594689560322084    0.03998803168231752      0.041125495195832536
0.03433379152573112       -4.361607833969095E-4    -0.014972485675566244    0.0011471676175682842    -0.041201108123219414    -0.039456464989631734    0.048633805930178055     -0.05037844906376564     0.05037844906376564      -0.048633805930178055    0.039456464989631734     0.041201108123219414
0.03817206979221569       -7.159666501950024E-4    -0.01501631714428394     0.0012744771700401805    -0.0413829760530811      -0.03851910945230104     0.048714926812622544     -0.051578793413402504    0.051578793413402504     -0.048714926812622544    0.03851910945230104      0.0413829760530811
0.04177423122467738       -9.773458368908935E-4    -0.015051204045363363    0.0013925466546492109    -0.04153811719127503     -0.03762873384371141     0.048769107080905164     -0.052678490428468686    0.052678490428468686     -0.048769107080905164    0.03762873384371141      0.04153811719127503
0.042026879047092125      -9.956784084819803E-4    -0.015053650937251407    0.0014008277932765038    -0.04154899845561216     -0.0375662848216842      0.04877290716789629      -0.052755620801824166    0.052755620801824166     -0.04877290716789629     0.0375662848216842       0.04154899845561216
0.04210847996899768       -0.0010015467649859874   -0.015054436346599113    0.0014036046021505613    -0.041551984161167066    -0.03754579710122307     0.048774633918427616     -0.05278082097837153     0.05278082097837153      -0.048774633918427616    0.03754579710122307      0.041551984161167066
0.04253725238898467       -0.0010323820712645386   -0.015058563283634037    0.0014181953571686138    -0.041567672564756734    -0.037438144279698535    0.048783707137047515     -0.05291323542210562     0.05291323542210562      -0.048783707137047515    0.037438144279698535     0.041567672564756734
0.04446369897974796       -0.0011728537422206868   -0.015078416575829005    0.0014799284196302014    -0.04166124353340758     -0.036969828564524784    0.048809255921566465     -0.05350067089044916     0.05350067089044916      -0.048809255921566465    0.036969828564524784     0.04166124353340758
0.045356149323933025      -0.0012374249092053972   -0.015086086621506564    0.0015083886455818847    -0.04169955510060295     -0.03674985546378131     0.04881696462843645      -0.053766664265258       0.053766664265258        -0.04881696462843645     0.03674985546378131      0.04169955510060295
0.04948816914456111       -0.0015448444853286487   -0.015125444936231802    0.0016438086941149828    -0.04189078900289278     -0.03571141106157813     0.04886188061449804      -0.0550412585558126      0.0550412585558126       -0.04886188061449804     0.03571141106157813      0.04189078900289278
0.05361458772660479       -0.0018543698221921338   -0.015166963009911254    0.001776565368339107     -0.04210336720076161     -0.034685887911993014    0.048898410858705915     -0.05631589014747442     0.05631589014747442      -0.048898410858705915    0.034685887911993014     0.04210336720076161
0.054001637333278646      -0.0018832262895764598   -0.015170392003491434    0.001789346020550389     -0.04212024450742568     -0.034587339349119776    0.04890210751352293      -0.056435012671828745    0.056435012671828745     -0.04890210751352293     0.034587339349119776     0.04212024450742568
0.056439085900137596      -0.0020654694816310847   -0.015192078397576667    0.0018681067813710018    -0.04223474703050817     -0.03397286910398377     0.048917723354951835     -0.05717960128147614     0.05717960128147614      -0.048917723354951835    0.03397286910398377      0.04223474703050817
0.059152495431429586      -0.002270004440860965    -0.015217675339477658    0.0019541539661768943    -0.04237641903544734     -0.033296401272003416    0.04892963300141862      -0.058009650764862454    0.058009650764862454     -0.04892963300141862     0.033296401272003416     0.04237641903544734
0.05922490439532152       -0.002275407535785632    -0.015218270257246258    0.001956386523118237     -0.0423800797508371      -0.033278449607694514    0.04892954179264046      -0.05803117193578296     0.05803117193578296      -0.04892954179264046     0.033278449607694514     0.0423800797508371
0.05928524568594583       -0.0022799281272135588   -0.015218691790167571    0.001958337512611729     -0.042382581574482936    -0.033262869065628635    0.04892956916652252      -0.05804928167537673     0.05804928167537673      -0.04892956916652252     0.033262869065628635     0.042382581574482936
0.059363864478261884      -0.0022859774187022406   -0.01521923178119249     0.001960875076562946     -0.042386149874730175    -0.033242240199921155    0.04892924081242477      -0.0580731504872337      0.0580731504872337       -0.04892924081242477     0.033242240199921155     0.042386149874730175
0.061323576014815376      -0.0024373459436513954   -0.01523675918912063     0.0020237925757849093    -0.04248979915152505     -0.032740415376919414    0.04893075598319874      -0.05868013975780429     0.05868013975780429      -0.04893075598319874     0.032740415376919414     0.04248979915152505
0.06727965402081916       -0.0028969678644308193   -0.015290459323804729    0.0022150388403211862    -0.04280515833899109     -0.031217286881267757    0.0489375976038373       -0.060525469061560554    0.060525469061560554     -0.0489375976038373      0.031217286881267757     0.04280515833899109
0.06740254314647146       -0.002906451040426546    -0.015291567294954888    0.002218984739990304     -0.04281166500575654     -0.031185860844050305    0.04893773876397279      -0.06056354292567894     0.06056354292567894      -0.04893773876397279     0.031185860844050305     0.04281166500575654
0.07312975846168261       -0.0033502560652617797   -0.015339577962427426    0.0024004685049676005    -0.043117371997935444    -0.029716347736888284    0.04892009577662913      -0.06232112003767622     0.06232112003767622      -0.04892009577662913     0.029716347736888284     0.043117371997935444
0.0733339131794467        -0.0033665568479094997   -0.0153411770269431      0.0024069540472821645    -0.04312882858751965     -0.02966260119588161     0.04891823357413897      -0.06238446096577694     0.06238446096577694      -0.04891823357413897     0.02966260119588161      0.04312882858751965
0.08008521595690583       -0.0039056162454567103   -0.015394057356255333    0.0026214279537448482    -0.04350769274470003     -0.02788522776287316     0.04885665139283199      -0.06447911637465881     0.06447911637465881      -0.04885665139283199     0.02788522776287316      0.04350769274470003
0.08106027177160371       -0.0039842961188840805   -0.015404246376340159    0.002652010784734783     -0.04357328822784951     -0.027636103752313155    0.04885219003019147      -0.06478937450572776     0.06478937450572776      -0.04885219003019147     0.027636103752313155     0.04357328822784951
0.08698361268381546       -0.004459999531977734    -0.015446951468802107    0.002837933942036648     -0.043909117702215214    -0.026069119574304245    0.04877259111059747      -0.06661258923850838     0.06661258923850838      -0.04877259111059747     0.026069119574304245     0.043909117702215214
0.08726937187776627       -0.00448362172483614     -0.015448854436859089    0.002846926225669058     -0.04392610185757333     -0.025991614958228732    0.04876702476358125      -0.06670151166292577     0.06670151166292577      -0.04876702476358125     0.025991614958228732     0.04392610185757333
0.09306820916149938       -0.004962980764092247    -0.015487470874587694    0.003029404307555375     -0.04427075692172608     -0.024418833865357065    0.04865406832580012      -0.06850599138216905     0.06850599138216905      -0.04865406832580012     0.024418833865357065     0.04427075692172608
0.09471800039673596       -0.005100758340230934    -0.015502775013124363    0.0030806558583386843    -0.044387218286480234    -0.023984184925556467    0.04862943179226599      -0.06903246515318967     0.06903246515318967      -0.04862943179226599     0.023984184925556467     0.044387218286480234
0.10083746690594832       -0.005609466070616747    -0.01553971431415725     0.003270900836884987     -0.04475447173616531     -0.022316607453698296    0.048483814148778226     -0.07092167843124517     0.07092167843124517      -0.048483814148778226    0.022316607453698296     0.04475447173616531
0.10107499682129824       -0.005629849161886483    -0.015540914343731515    0.0032783009492629205    -0.04476923755791585     -0.022249840910369887    0.04847624850447328      -0.07099564515201917     0.07099564515201917      -0.04847624850447328     0.022249840910369887     0.04476923755791585
0.10605120236609297       -0.006056870961002141    -0.015566054729996469    0.003433331864812763     -0.04507857865274266     -0.020851094808734053    0.0483177497272362       -0.07254523357124472     0.07254523357124472      -0.0483177497272362      0.020851094808734053     0.04507857865274266
0.10837572902186823       -0.006256898553670537    -0.015578699785604918    0.0035039810633713023    -0.045233972210670645    -0.020206377995988456    0.04823822650295891      -0.07326582071764103     0.07326582071764103      -0.04823822650295891     0.020206377995988456     0.045233972210670645
0.11207503909846125       -0.006575611306916281    -0.015595145385002802    0.0036175434422816453    -0.045466484999714396    -0.019164039772049238    0.04810438731030244      -0.07440683253796754     0.07440683253796754      -0.04810438731030244     0.019164039772049238     0.045466484999714396
0.11374323426928593       -0.006719922048324441    -0.015607270633540948    0.003667180027566787     -0.045592935887004596    -0.018713247693706796    0.048050687914241136     -0.07493037610753886     0.07493037610753886      -0.048050687914241136    0.018713247693706796     0.045592935887004596
0.11928950173779308       -0.007216748126907991    -0.01562999592427594     0.0038377189601078118    -0.04597260818621257     -0.017105615678580575    0.04780736735944311      -0.07667435986707505     0.07667435986707505      -0.04780736735944311     0.017105615678580575     0.04597260818621257
0.12123006299119518       -0.0073908591268596275   -0.01563777174893601     0.0038982211347917285    -0.046102148961360376    -0.016538712453921838    0.04772448153225571      -0.07728791803969419     0.07728791803969419      -0.04772448153225571     0.016538712453921838     0.046102148961360376
0.12543512311095015       -0.0077662556668263065   -0.01565256210922305     0.0040275610446058345    -0.046379953482898445    -0.015314930815593179    0.04753541917243989      -0.07860044183974507     0.07860044183974507      -0.04753541917243989     0.015314930815593179     0.046379953482898445
0.12543821800579738       -0.007766531956055029    -0.01565257299482481     0.00402765623787514      -0.04638015794508394     -0.015314030120863796    0.04753528002386496      -0.07860140784808502     0.07860140784808502      -0.04753528002386496     0.015314030120863796     0.04638015794508394
0.12551736945466402       -0.007773625907503547    -0.015653074828815262    0.004030016103778738     -0.04638641188633794     -0.015291908256323728    0.047532037086553666     -0.0786265407165678      0.0786265407165678       -0.047532037086553666    0.015291908256323728     0.04638641188633794
0.12558949507016567       -0.007780311691208522    -0.015653303401658127    0.0040322381724779855    -0.0463915808974795      -0.015270334132645384    0.047528239512469296     -0.07864948627730334     0.07864948627730334      -0.047528239512469296    0.015270334132645384     0.0463915808974795
0.12610384787951548       -0.007827990336408824    -0.01565493343397121     0.004048084515972953     -0.04642844291083949     -0.015116481565204155    0.047501157692987815     -0.07881311903862306     0.07881311903862306      -0.047501157692987815    0.015116481565204155     0.04642844291083949
0.1280448367686936        -0.008006967750346643    -0.015661020812174613    0.004107647402060292     -0.04656640832897598     -0.014538537327589371    0.04739971654407175      -0.07942758754545828     0.07942758754545828      -0.04739971654407175     0.014538537327589371     0.04656640832897598
0.12885760192443008       -0.00808215006310348     -0.015663480787729386    0.0041328494453452816    -0.04662334470801401     -0.014294744455600056    0.04735754001836234      -0.07968614027077621     0.07968614027077621      -0.04735754001836234     0.014294744455600056     0.04662334470801401
0.13559303973407685       -0.008703229121385311    -0.01567971433276776     0.00433705997949569      -0.047097361323091176    -0.012284444837549875    0.04698092467351543      -0.08179384115905663     0.08179384115905663      -0.04698092467351543     0.012284444837549875     0.047097361323091176
0.13623427180648556       -0.008762357543757695    -0.015681259810585487    0.004356501379998774     -0.04714248899927679     -0.012093058824245956    0.04694506986423618      -0.08199450003926692     0.08199450003926692      -0.04694506986423618     0.012093058824245956     0.04714248899927679
0.1373565257032564        -0.008865380887871463    -0.015681775913037106    0.004390631990385698     -0.0472135615533115      -0.01175203800182559     0.0468770939249112       -0.08233861747639704     0.08233861747639704      -0.0468770939249112      0.01175203800182559      0.0472135615533115
0.13862306218585346       -0.00898555273140402     -0.015678670062705506    0.004429429194791492     -0.047289398871758634    -0.011347187946142492    0.04678262150447446      -0.08272483243009052     0.08272483243009052      -0.04678262150447446     0.011347187946142492     0.047289398871758634
0.1445112960022989        -0.009549431453219544    -0.015685100574536287    0.004608828984004717     -0.04771884869402911     -0.009521122881150893    0.04639175475318866      -0.0845894805660668      0.0845894805660668       -0.04639175475318866     0.009521122881150893     0.04771884869402911
0.1466315608782774        -0.009753982014363609    -0.0156831130459847      0.004675220735309141     -0.047856420225444785    -0.008840492167990304    0.04624225805046346      -0.08525818610791785     0.08525818610791785      -0.04624225805046346     0.008840492167990304     0.047856420225444785
0.14827598449622673       -0.009912206643864335    -0.01568443562727205     0.004724505594934629     -0.04797969778980633     -0.008330871214348945    0.046126915973826        -0.0857757425492833      0.0857757425492833       -0.046126915973826       0.008330871214348945     0.04797969778980633
0.15065523569310457       -0.010144881635251573    -0.015677954781982067    0.00479316797474578      -0.04815095571746624     -0.007571429176459915    0.04591677297442618      -0.08649629951543243     0.08649629951543243      -0.04591677297442618     0.007571429176459915     0.04815095571746624
0.15604613908357273       -0.010681629647097643    -0.015674082766229294    0.004955675024345408     -0.04856280749550153     -0.005836288907110936    0.04548168910187424      -0.08820820769026474     0.08820820769026474      -0.04548168910187424     0.005836288907110936     0.04856280749550153
0.15751903250856655       -0.010829054113929907    -0.01567409758077582     0.00499937428583406      -0.04868290382685103     -0.005366687371131379    0.04536168165780391      -0.08867789811352347     0.08867789811352347      -0.04536168165780391     0.005366687371131379     0.04868290382685103
0.15919544328919705       -0.010996848987158653    -0.015674114442325394    0.005049111701876548     -0.04881959449378728     -0.0048321985451526515   0.04522509216016508      -0.08921248810879964     0.08921248810879964      -0.04522509216016508     0.0048321985451526515    0.04881959449378728
0.16009576863629574       -0.011089742895572147    -0.015671638330884353    0.005076138257657197     -0.048889847753168555    -0.004530876170879947    0.04513998223213756      -0.0894989538144261      0.0894989538144261       -0.04513998223213756     0.004530876170879947     0.048889847753168555
0.16100908294844882       -0.011180751092114093    -0.015662941134258004    0.005102481141231723     -0.04894040102207531     -0.004217396653618915    0.04503724578347274      -0.08976025015192905     0.08976025015192905      -0.04503724578347274     0.004217396653618915     0.04894040102207531
0.16141213402059096       -0.011221689405952395    -0.01565998109665836     0.00511466937111772      -0.04896464461740898     -0.004077886993599383    0.044995241962541184     -0.08988199958635071     0.08988199958635071      -0.044995241962541184    0.004077886993599383     0.04896464461740898
0.16181356062420962       -0.011262462720844331    -0.01565703298927858     0.005126808477214761     -0.04898879050066536     -0.0039389396172880165   0.04495340743500614      -0.09000325831838342     0.09000325831838342      -0.04495340743500614     0.0039389396172880165    0.04898879050066536
0.16314401201264672       -0.011403507823634498    -0.015657855493982756    0.0051680129095561834    -0.04910853049099255     -0.0034944991964545274   0.04483860247290403      -0.09045263376744198     0.09045263376744198      -0.04483860247290403     0.0034944991964545274    0.04910853049099255
0.1647443985771044        -0.011573169556073373    -0.015658844876600724    0.005217577305886954     -0.04925256451840112     -0.002959886294107594    0.044700504741203254     -0.09099318296549672     0.09099318296549672      -0.044700504741203254    0.002959886294107594     0.04925256451840112
0.1655945996448217        -0.011661190244195265    -0.015656578632208734    0.005242946974875795     -0.04932032848551356     -0.002675567508732475    0.04461914330773886      -0.09126390428451989     0.09126390428451989      -0.04461914330773886     0.002675567508732475     0.04932032848551356
0.16758098216484657       -0.011859822917817698    -0.015637831203672247    0.005299884901665356     -0.049433599839990724    -0.001994308168719899    0.04439338738204278      -0.09183267905331355     0.09183267905331355      -0.04439338738204278     0.001994308168719899     0.049433599839990724
0.16883068569779822       -0.011990340865324346    -0.015635987035570037    0.005336619288286225     -0.04954216568421392     -0.0015808022229164983   0.04427375652920633      -0.09223511999050368     0.09223511999050368      -0.04427375652920633     0.0015808022229164983    0.04954216568421392
0.1701149020821674        -0.012124463304945201    -0.015634091937388798    0.005374368162258638     -0.049653729773022265    -0.0011558765532414142   0.04415082185131056      -0.09264867507109134     0.09264867507109134      -0.04415082185131056     0.0011558765532414142    0.049653729773022265
0.17208607642500068       -0.01233550662402521     -0.015620104423772008    0.005432193846119952     -0.049802551134886665    -4.605246387857765E-4    0.04391807540774542      -0.09326010190384623     0.09326010190384623      -0.04391807540774542     4.605246387857765E-4     0.049802551134886665
0.17298498485243627       -0.01243256696956738     -0.015614159551617266    0.005458622258477491     -0.04987312356007663     -1.4285568180705667E-4   0.043811833749627015     -0.0935421016278965      0.0935421016278965       -0.043811833749627015    1.4285568180705667E-4    0.04987312356007663
0.17636927433124286       -0.012797988291920309    -0.015591777774261439    0.005558122268882708     -0.05013882083109412     0.0010531323365871653    0.04341184581447454      -0.09460379898215576     0.09460379898215576      -0.04341184581447454     -0.0010531323365871653   0.05013882083109412
0.1782827577939047        -0.01300469540205416     -0.015572502203773143    0.005614754447637776     -0.05026787962487667     0.00175090198334002      0.04316713359776222      -0.09518591520597884     0.09518591520597884      -0.04316713359776222     -0.00175090198334002     0.05026787962487667
0.18271788384405754       -0.013485237312050317    -0.01553147261406199     0.00574628269596056      -0.05057976168244439     0.003361187565756932     0.04260907400192758      -0.09655002325012883     0.09655002325012883      -0.04260907400192758     -0.003361187565756932    0.05057976168244439
0.1846927495433948        -0.013708438306516555    -0.015513615058020992    0.00580367530423555      -0.0507430205701539      0.004090732655912363     0.042338669777972064     -0.09717242300403829     0.09717242300403829      -0.042338669777972064    -0.004090732655912363    0.0507430205701539
0.1856795765055383        -0.013818984736591081    -0.01550407091280614     0.005832607444187575     -0.0508197524348503      0.0044561865115140716    0.042204673041986565     -0.09748061198835087     0.09748061198835087      -0.042204673041986565    -0.0044561865115140716   0.0508197524348503
0.18656520083520498       -0.013918194235102493    -0.015495505553799546    0.00585857248976677      -0.050888615172536567    0.00478416176787346      0.04208441815026073      -0.09775719509067071     0.09775719509067071      -0.04208441815026073     -0.00478416176787346     0.050888615172536567
0.18934100532492493       -0.014229286728609167    -0.01545905462250256     0.0059404980492433835    -0.05107374512775249     0.005843401786684218     0.04168058260726289      -0.09859772952169954     0.09859772952169954      -0.04168058260726289     -0.005843401786684218    0.05107374512775249
0.19144054473634325       -0.014464588225214042    -0.015431484176844605    0.0060024642077248815    -0.05121377215006239     0.006644580750793814     0.041375132911005266     -0.09923348581186141     0.09923348581186141      -0.041375132911005266    -0.006644580750793814    0.05121377215006239
0.19448448013202316       -0.01481995143102496     -0.01539214732241444     0.0060904937802324765    -0.051454369708363354    0.007825436015736525     0.04089851422612332      -0.10017831995022314     0.10017831995022314      -0.04089851422612332     -0.007825436015736525    0.051454369708363354
0.19466178262195116       -0.014840666263322411    -0.015389826695178653    0.006095609760571772     -0.05146837356989372     0.007894291483395975     0.04087058660117823      -0.10023325165446786     0.10023325165446786      -0.04087058660117823     -0.007894291483395975    0.05146837356989372
0.19676112733916706       -0.015085939602514286    -0.015362349379264728    0.006156185369538363     -0.05163418586466933     0.008709572545387866     0.04053991041091906      -0.10088366882097621     0.10088366882097621      -0.04053991041091906     -0.008709572545387866    0.05163418586466933
0.196804602056392         -0.015090903168068489    -0.015361657769851652    0.006157434771280347     -0.05163704056057056     0.00872657211170345      0.04053290605853936      -0.10089651873081332     0.10089651873081332      -0.04053290605853936     -0.00872657211170345     0.05163704056057056
0.19708184168514387       -0.01512255598053909     -0.015357247355036747    0.006165402245187477     -0.05165524504543853     0.008834978876717879     0.04048823908478197      -0.10097846300693832     0.10097846300693832      -0.04048823908478197     -0.008834978876717879    0.05165524504543853
0.19769842473454358       -0.015192708733463654    -0.01534773677665257     0.006183533193499428     -0.05169449502288731     0.009076339910967344     0.04039192563702811      -0.10116276057088272     0.10116276057088272      -0.04039192563702811     -0.009076339910967344    0.05169449502288731
0.19842377783373208       -0.015275236978117756    -0.015336548458205031    0.006204862582236442     -0.05174066900190485     0.009360278910566218     0.04027862174732535      -0.10137956965979636     0.10137956965979636      -0.04027862174732535     -0.009360278910566218    0.05174066900190485
0.1987449641588253        -0.01531174005352093     -0.015331426100639131    0.00621426397850287      -0.05176070249494778     0.009486257719135983     0.04022785410888701      -0.10147481432297072     0.10147481432297072      -0.04022785410888701     -0.009486257719135983    0.05176070249494778
0.19878904531947303       -0.015316964169627786    -0.015330709211975989    0.006215522345676782     -0.051763966592476424    0.009503890086034769     0.04022028867937952      -0.10148814535789066     0.10148814535789066      -0.04022028867937952     -0.009503890086034769    0.051763966592476424
0.19885588815177366       -0.015324706144809987    -0.015329372140859537    0.006217412382175705     -0.05176787918349576     0.009530945395744221     0.04020835366166145      -0.10150717824090139     0.10150717824090139      -0.04020835366166145     -0.009530945395744221    0.05176787918349576
0.19986307476522602       -0.015441362089760404    -0.015309225176953718    0.006245891418672699     -0.05182683403569118     0.00993861432335048      0.040028517026031135     -0.10179396538507275     0.10179396538507275      -0.040028517026031135    -0.00993861432335048     0.05182683403569118