% Model:              Cylinder_slice_potential_1.mph
% Version:            COMSOL 6.2.0.415
% Date:               May 17 2024, 18:28
% Dimension:          1
% Nodes:              1205
% Expressions:        11
% Description:        Line graph
% Arc length (m)          Magnetic scalar potential Magnetic scalar potential Magnetic scalar potential Magnetic scalar potential Magnetic scalar potential Magnetic scalar potential Magnetic scalar potential Magnetic scalar potential Magnetic scalar potential Magnetic scalar potential Magnetic scalar potential
0                         -0.002369539664201236    1.355128015209638E-6     2.7067317941630867E-7    -0.004733931251639175    0.004744227405165762     -0.004742062019730443    -0.004736096637074502    0.004736096637074502     0.004742062019730443     -0.004744227405165762    0.004733931251639175
0.0010252542383362784     -0.002377859604664045    1.3048174715187756E-6    2.6572011635266536E-6    -0.004741175952259424    0.00477026246639675      -0.004749004857088546    -0.004762433561567634    0.004762433561567634     0.004749004857088546     -0.00477026246639675     0.004741175952259424
0.003185054904373889      -0.002394848653475798    5.83041784450819E-7      7.590387701169676E-6     -0.0047575866307935635   0.004821807983109624     -0.004761084881500276    -0.004818309732402918    0.004818309732402918     0.004761084881500276     -0.004821807983109624    0.0047575866307935635
0.0035812559422064927     -0.0023979992967169033   9.896436053736266E-7     8.562943696223091E-6     -0.004758777887832791    0.004833219299034817     -0.0047647157494650405   -0.004827281437402573    0.004827281437402573     0.0047647157494650405    -0.004833219299034817    0.004758777887832791
0.00464612478475915       -0.002406467275094258    2.0824666146076447E-6    1.1176880758164216E-5    -0.004761979627312034    0.004863889473064991     -0.004774474426999688    -0.0048513946733773445   0.0048513946733773445    0.004774474426999688     -0.004863889473064991    0.004761979627312034
0.009899321756602384      -0.0024494975763468337   3.1557075248190088E-6    2.4139598676248228E-5    -0.004792969635414217    0.005005020669973114     -0.004811903880563137    -0.004986086424824201    0.004986086424824201     0.004811903880563137     -0.005005020669973114    0.004792969635414217
0.010369015651669835      -0.0024535959366299      2.642007750712733E-6     2.5287265370414486E-5    -0.004798116788526004    0.005016266957993593     -0.004813968835030287    -0.005000414911489316    0.005000414911489316     0.004813968835030287     -0.005016266957993593    0.004798116788526004
0.01250028152613006       -0.0024721925066604478   3.1106240573777774E-7    3.0494875872100647E-5    -0.004821472322615279    0.005067297704026507     -0.004823338697049713    -0.0050654313295920815   0.0050654313295920815    0.004823338697049713     -0.005067297704026507    0.004821472322615279
0.013605386767628146      -0.0024819303678332064   6.058458895365828E-7     3.338367099705642E-5     -0.0048285085140095775   0.005099212957323245     -0.004832143589346804    -0.0050955778819860255   0.0050955778819860255    0.004832143589346804     -0.005099212957323245    0.0048285085140095775
0.016972150785482535      -0.0025093654138485504   3.6218653591992944E-6    4.2120881760255635E-5    -0.00483938170457848     0.005198079950815717     -0.004861112896733683    -0.005176348758660522    0.005176348758660522     0.004861112896733683     -0.005198079950815717    0.00483938170457848
0.019358950996454165      -0.002529385691188191    3.7981845380420805E-6    4.8345702713851774E-5    -0.00485399401790685     0.005263548746845913     -0.004876783125135109    -0.00524075963961766     0.00524075963961766      0.004876783125135109     -0.005263548746845913    0.00485399401790685
0.02060193667911356       -0.002540475924634228    2.276620453503811E-6     5.155741387287205E-5     -0.004867892332416458    0.005294011366120455     -0.004881552055137487    -0.005280351643399431    0.005280351643399431     0.004881552055137487     -0.005294011366120455    0.004867892332416458
0.021815508147886232      -0.0025513037170053717   7.91062907133512E-7      5.4693122580462924E-5    -0.004881461754967493    0.0053237531130539955    -0.004886208132410301    -0.005319006735611193    0.005319006735611193     0.004886208132410301     -0.0053237531130539955   0.004881461754967493
0.024198193556821998      -0.002571839909865518    -2.1769158726978732E-7   6.114870797747946E-5     -0.004899738062582929    0.005387621576879143     -0.0048984319130593165   -0.00538892772640276     0.00538892772640276      0.0048984319130593165    -0.005387621576879143    0.004899738062582929
0.029298176786205925      -0.002617761367251872    1.001636913827322E-6     7.52466402435614E-5      -0.004931531262788017    0.005539514206219469     -0.004937541084270987    -0.005533504384736505    0.005533504384736505     0.004937541084270987     -0.005539514206219469    0.004931531262788017
0.0322875785708631        -0.0026442398060678076   -2.3245422026846736E-7   8.373503741555076E-5     -0.004954236825134217    0.00562272239913701      -0.004952842099812614    -0.00562411712445862     0.00562411712445862      0.004952842099812614     -0.00562272239913701     0.004954236825134217
0.03337335992760946       -0.0026535818981508847   -1.5691860934875416E-7   8.673177519667529E-5     -0.004960707451343114    0.005653620141260422     -0.004959765939687029    -0.005654561652916514    0.005654561652916514     0.004959765939687029     -0.005653620141260422    0.004960707451343114
0.03680055555958658       -0.0026855589025253533   -2.2742491795850863E-8   9.676098804390982E-5     -0.004984142080350454    0.0057580935297509555    -0.004984005625399688    -0.005758229984701732    0.005758229984701732     0.004984005625399688     -0.0057580935297509555   0.004984142080350454
0.040406554671213825      -0.002720535752524936    -1.5692762479077596E-7   1.072880789855934E-4     -0.00501238997198187     0.00586975303811787      -0.005011448406233134    -0.0058706946038666165   0.0058706946038666165    0.005011448406233134     -0.00586975303811787     0.00501238997198187
0.0416242027869293        -0.0027323464862986434   -2.0223830548991357E-7   1.1084279213229798E-4    -0.005021928518984564    0.005907457426210006     -0.0050207150891516325   -0.005908670856042947    0.005908670856042947     0.0050207150891516325    -0.005907457426210006    0.005021928518984564
0.042548526298396935      -0.0027410799449222706   -8.095540641729464E-7    1.1359991286182986E-4    -0.005030188900589739    0.0059341308790993395    -0.005025331576204712    -0.005938988203484378    0.005938988203484378     0.005025331576204712     -0.0059341308790993395   0.005030188900589739
0.04432359492599997       -0.002757961340933534    3.0002324220498866E-7    1.1904659823657143E-4    -0.005038836219194165    0.0059930091445399665    -0.0050406363586474046   -0.0059912090050867365   0.0059912090050867365    0.0050406363586474046    -0.0059930091445399665   0.005038836219194165
0.04680406855420964       -0.002781551334560906    1.8505420244826778E-6    1.266577740655564E-4     -0.005050919946786135    0.0060752853914574825    -0.005062023198933041    -0.006064182139310585    0.006064182139310585     0.005062023198933041     -0.0060752853914574825   0.005050919946786135
0.05026443076162997       -0.0028131379570769206   2.7467877361478234E-6    1.371420265918738E-4     -0.005069467444577899    0.006183084383729778     -0.0050859481709947954   -0.0061666036573128895   0.0061666036573128895    0.0050859481709947954    -0.006183084383729778    0.005069467444577899
0.051715429447852346      -0.002829694906363851    3.490469735698359E-6     1.4172079951231344E-4    -0.00508203520547135     0.006236744419984048     -0.005102978023885548    -0.006215801601569857    0.006215801601569857     0.005102978023885548     -0.006236744419984048    0.00508203520547135
0.05330542028468128       -0.002844683759849106    2.1599095677845523E-6    1.4671608066500088E-4    -0.005096023468334852    0.006282711571061566     -0.0051089829257415665   -0.006269752113654858    0.006269752113654858     0.0051089829257415665    -0.006282711571061566    0.005096023468334852
0.056617522532514154      -0.0028787139715314037   3.5296933907082773E-6    1.574515998854939E-4     -0.005117032463348705    0.006397823422776904     -0.005138210623692961    -0.006376645262432654    0.006376645262432654     0.005138210623692961     -0.006397823422776904    0.005117032463348705
0.05785712328574337       -0.0028914502558841965   4.042354212024543E-6     1.6146951863203534E-4    -0.0051248953746041775   0.006440905648932606     -0.00514914949987633     -0.006416651523660457    0.006416651523660457     0.00514914949987633      -0.006440905648932606    0.0051248953746041775
0.05828662173759516       -0.002895467915572364    4.301479140085178E-6     1.6282783050826702E-4    -0.005126720071691404    0.00645515159059805      -0.005152528946531921    -0.006429342715757538    0.006429342715757538     0.005152528946531921     -0.00645515159059805     0.005126720071691404
0.06146012872094655       -0.00292988677553357     9.676757119172765E-7     1.7347848299651872E-4    -0.005162956591945313    0.006556590510188963     -0.005168762646216822    -0.006550784455917459    0.006550784455917459     0.005168762646216822     -0.006556590510188963    0.005162956591945313
0.06147964534834792       -0.00293009121055994     9.435922067961591E-7     1.7354517367172988E-4    -0.005163170949812571    0.006557193892427185     -0.005168832503053353    -0.006551532339186406    0.006551532339186406     0.005168832503053353     -0.006557193892427185    0.005163170949812571
0.06155383174507098       -0.002930829112344246    1.0157044268242508E-6    1.7379231423654906E-4    -0.005163441854461823    0.006559874594915158     -0.0051695360810227724   -0.006553780368354211    0.006553780368354211     0.0051695360810227724    -0.006559874594915158    0.005163441854461823
0.06485781402733798       -0.0029638768310687492   4.18193075663917E-6      1.847247399737369E-4     -0.005176308909972632    0.0066791984143023606    -0.005201400494512474    -0.006654106829762524    0.006654106829762524     0.005201400494512474     -0.0066791984143023606   0.005176308909972632
0.06529214646141243       -0.002968868948307533    3.879841884180568E-6     1.8624595636007447E-4    -0.005181114545522227    0.006694361247707906     -0.005204393596827317    -0.006671082196402819    0.006671082196402819     0.005204393596827317     -0.006694361247707906    0.005181114545522227
0.06911947534306447       -0.003013674078742491    2.3879871799822694E-6    1.9965595587407442E-4    -0.005221560372448739    0.006833135942521226     -0.005235888295528637    -0.00681880801944133     0.00681880801944133      0.005235888295528637     -0.006833135942521226    0.005221560372448739
0.07023391085028229       -0.0030263816349238907   2.2596262710653143E-6    2.035930082568311E-4     -0.005231612358007263    0.006873914181688301     -0.005245170115633659    -0.006860356424061907    0.006860356424061907     0.005245170115633659     -0.006873914181688301    0.005231612358007263
0.07026375779233794       -0.003026721970179326    2.256188494194574E-6     2.0369845085407173E-4    -0.005231881571459783    0.006875006309257522     -0.005245418702424955    -0.006861469178292352    0.006861469178292352     0.005245418702424955     -0.006875006309257522    0.005231881571459783
0.07466335901317724       -0.0030761329873779048   2.3245047898974024E-6    2.1947678444683377E-4    -0.005267385322598782    0.007037146626912835     -0.00528133235133817     -0.007023199598173447    0.007023199598173447     0.00528133235133817      -0.007037146626912835    0.005267385322598782
0.07654994976970503       -0.003096164670939743    1.7955073974907282E-6    2.2596382562968748E-4    -0.005283087517168265    0.0071015711665907075    -0.005293860561553212    -0.00709079812220576     0.00709079812220576      0.005293860561553212     -0.0071015711665907075   0.005283087517168265
0.07781741378474841       -0.0031110315687482115   1.4924096772351818E-6    2.3060812491178872E-4    -0.0052951534088175635   0.007148972866175282     -0.005304107866880976    -0.007140018408111868    0.007140018408111868     0.005304107866880976     -0.007148972866175282    0.0052951534088175635
0.07881807070886387       -0.003122768915178241    1.253115441771644E-6     2.3427477751820626E-4    -0.005304679373958343    0.007186396286754621     -0.005312198066608975    -0.007178877594103989    0.007178877594103989     0.005312198066608975     -0.007186396286754621    0.005304679373958343
0.08069300103133992       -0.0031435637242067183   -2.693200989333998E-7    2.4111241952717077E-4    -0.005323485730601554    0.007250769166225319     -0.0053218698100079564   -0.007252385086818917    0.007252385086818917     0.0053218698100079564    -0.007250769166225319    0.005323485730601554
0.08106293110336567       -0.00314766661011637     -5.697017624417659E-7    2.424615093416244E-4     -0.005327196288153568    0.007263470152311911     -0.00532377807757892     -0.00726688836288656     0.00726688836288656      0.00532377807757892      -0.007263470152311911    0.005327196288153568
0.08260023011992668       -0.0031669087409655445   -7.509883949316042E-7    2.483956051507463E-4     -0.005342488026512899    0.0073251469373492775    -0.005337982096143312    -0.0073296528677188645   0.0073296528677188645    0.005337982096143312     -0.0073251469373492775   0.005342488026512899
0.08639002285136514       -0.00321537710278191     -7.666117217620773E-7    2.629236076458211E-4     -0.0053813596101458215   0.007480148800981815     -0.005376759939815253    -0.007484748471312386    0.007484748471312386     0.005376759939815253     -0.007480148800981815    0.0053813596101458215
0.09001335616458273       -0.0032578530143232637   1.9583872490143805E-7    2.7671443543022514E-4    -0.005408260770750923    0.00762315128654213      -0.005409435803100336    -0.00762197625419272     0.00762197625419272      0.005409435803100336     -0.00762315128654213     0.005408260770750923
0.09348039601298926       -0.0032963385590249862   -2.92973354969492E-7     2.900335076024864E-4     -0.005433422007704934    0.007751932228395006     -0.005431664167575124    -0.00775369006852482     0.00775369006852482      0.005431664167575124     -0.007751932228395006    0.005433422007704934
0.09499076816231265       -0.003316788102373788    -6.868087940038822E-7    2.9629532203509886E-4    -0.00545045534298919     0.007816697066505958     -0.005446334490225175    -0.007820817919269979    0.007820817919269979     0.005446334490225175     -0.007816697066505958    0.00545045534298919
0.09535302060541653       -0.0033216671030967745   -7.09064519925294E-7     2.977881769446635E-4     -0.005454308691974668    0.007832359720412425     -0.005450054304855125    -0.007836614107531975    0.007836614107531975     0.005450054304855125     -0.007832359720412425    0.005454308691974668
0.09642817012827322       -0.0033361477654061584   -7.751185481610035E-7    3.022189054994809E-4     -0.005465745264458873    0.007878845797165754     -0.005461094553169917    -0.00788349650845472     0.00788349650845472      0.005461094553169917     -0.007878845797165754    0.005465745264458873
0.10484161622305656       -0.0034436438813409535   3.0753422678315934E-7    3.3664541842072434E-4    -0.005539783486318657    0.008234792039045149     -0.005541628691679365    -0.008232946833684448    0.008232946833684448     0.005541628691679365     -0.008234792039045149    0.005539783486318657
0.10589786092261286       -0.0034571051547877957   -5.173182827273312E-7    3.4104533566768646E-4    -0.005551580921753025    0.008276839697398152     -0.00554847701205667     -0.008279943607094513    0.008279943607094513     0.00554847701205667      -0.008276839697398152    0.005551580921753025
0.10655458228647559       -0.0034665886761687027   -7.130326003163332E-7    3.4395668208468265E-4    -0.005559489721799621    0.008306864982875181     -0.005555211526197732    -0.008311143178477079    0.008311143178477079     0.005555211526197732     -0.008306864982875181    0.005559489721799621
0.10827861715583442       -0.003491484960109924    -1.2268247906168773E-6   3.51599592786052E-4      -0.005580252023447487    0.008385687816992202     -0.005572891074703795    -0.008393048765735902    0.008393048765735902     0.005572891074703795     -0.008385687816992202    0.005580252023447487
0.1178533889801529        -0.0036224586472838848   -4.5048512882130984E-7   3.934936493346818E-4     -0.005672294152615502    0.00881754043652003      -0.005669591241842583    -0.008820243347292955    0.008820243347292955     0.005669591241842583     -0.00881754043652003     0.005672294152615502
0.11831532583223645       -0.003628731477288886    -9.71961709364469E-7     3.9555431316463095E-4    -0.005678161587047338    0.008836764322108198     -0.005672329816791159    -0.008842596092364383    0.008842596092364383     0.005672329816791159     -0.008836764322108198    0.005678161587047338
0.11913793065115591       -0.003640829288622148    -1.14519243169221E-6     3.9929317928995105E-4    -0.005687921437379565    0.00887539571710902      -0.00568105028278942     -0.008882266871699171    0.008882266871699171     0.00568105028278942      -0.00887539571710902     0.005687921437379565
0.12078304965513122       -0.0036638643449443684   -1.4975206406903784E-6   4.0672277634713706E-4    -0.005705330146422256    0.00895012723335521      -0.005696345022578124    -0.008959112357199352    0.008959112357199352     0.005696345022578124     -0.00895012723335521     0.005705330146422256
0.12103158779791826       -0.003667391021711862    -1.494654413490133E-6    4.078591502337424E-4     -0.005707829405729221    0.00896173468111822      -0.005698861479248289    -0.008970702607599159    0.008970702607599159     0.005698861479248289     -0.00896173468111822     0.005707829405729221
0.12242330906482612       -0.003687064104220982    -2.0094552842042315E-6   4.1432866640679183E-4    -0.005722841908667406    0.009025414508216516     -0.00571078517696219     -0.00903747123992174     0.00903747123992174      0.00571078517696219      -0.009025414508216516    0.005722841908667406
0.12336629390641521       -0.0037003939419079854   -2.358267527764196E-6    4.187121991073848E-4     -0.005733013889969721    0.009068561877662213     -0.0057188642848031435   -0.009082711482828798    0.009082711482828798     0.0057188642848031435    -0.009068561877662213    0.005733013889969721
0.12382419240568006       -0.003706813804814896    -2.4792388129585623E-6   4.208198763659415E-4     -0.005737785820604899    0.009089469398654678     -0.005722910387727155    -0.00910434483153243     0.00910434483153243      0.005722910387727155     -0.009089469398654678    0.005737785820604899
0.12843351130404784       -0.0037795678182682606   5.544035343612863E-7     4.4323248016091266E-4    -0.005784542505289784    0.009333728767783251     -0.00578786892649596     -0.009330402346577083    0.009330402346577083     0.00578786892649596      -0.009333728767783251    0.005784542505289784
0.12900355368814115       -0.0037885654320580116   9.295792933579262E-7     4.460042853630974E-4     -0.005790324984783555    0.009363936743448481     -0.005795902460543712    -0.009358359267688333    0.009358359267688333     0.005795902460543712     -0.009363936743448481    0.005790324984783555
0.12978735736631108       -0.003800448105396424    1.4494960881752651E-6    4.49794070358037E-4      -0.005797371441096171    0.009404420980489516     -0.0058060684176252314   -0.009395724003960465    0.009395724003960465     0.0058060684176252314    -0.009404420980489516    0.005797371441096171
0.13216620053087455       -0.0038365120038382156   3.027442897994721E-6     4.6129606298893E-4       -0.005818757427026723    0.009527290588326132     -0.005836922084414702    -0.009509125930938164    0.009509125930938164     0.005836922084414702     -0.009527290588326132    0.005818757427026723
0.13373925953769492       -0.0038599416742304726   3.268954070338012E-6     4.6888245752159456E-4    -0.00583454665616355     0.009605220040758335     -0.005854160380585588    -0.009585606316336306    0.009585606316336306     0.005854160380585588     -0.009605220040758335    0.00583454665616355
0.1352097681275056        -0.0038834566424471684   9.426883705121511E-7     4.760674878685838E-4     -0.005859815268308462    0.009674011301480205     -0.005865471398531545    -0.009668355171257132    0.009668355171257132     0.005865471398531545     -0.009674011301480205    0.005859815268308462
0.13574913705760355       -0.0038916473680649134   1.0991659231125543E-8    4.78703765234954E-4      -0.005868446700212314    0.009698142772047332     -0.00586851265016771     -0.009698076822091945    0.009698076822091945     0.00586851265016771      -0.009698142772047332    0.005868446700212314
0.13598876340787544       -0.0038952862756406648   -4.029348204495658E-7    4.798749886561713E-4     -0.0058722814011179895   0.009708863701444661     -0.005869863792195301    -0.009711281310367359    0.009711281310367359     0.005869863792195301     -0.009708863701444661    0.0058722814011179895
0.1374042570667411        -0.003917745758414206    1.0575650746013756E-6    4.8720652430900703E-4    -0.005883492724368576    0.00978749030928824      -0.005889838114816194    -0.009781144918840632    0.009781144918840632     0.005889838114816194     -0.00978749030928824     0.005883492724368576
0.13848773581315996       -0.00393493719695459     2.175493498740569E-6     4.92818391948757E-4      -0.005892074345617927    0.009847674442200426     -0.00590512730661038     -0.009834621481207983    0.009834621481207983     0.00590512730661038      -0.009847674442200426    0.005892074345617927
0.14198637485187907       -0.0039918807057325156   6.228662311179969E-6     5.108739435950185E-4     -0.005921579650151412    0.01004594317277864      -0.005958951624018502    -0.01000857119891156     0.01000857119891156      0.005958951624018502     -0.01004594317277864     0.005921579650151412
0.14815333441007078       -0.004099016892531928    2.670466785271065E-6     5.430908755294098E-4     -0.006017658882590398    0.010378408687537302     -0.006033681683302033    -0.010362385886825679    0.010362385886825679     0.006033681683302033     -0.010378408687537302    0.006017658882590398
0.14923556898601692       -0.004118555278276113    5.03212031242556E-6      5.490603757898308E-4     -0.006025772692455621    0.01044844842064882      -0.006055965414330183    -0.010418255698774269    0.010418255698774269     0.006055965414330183     -0.01044844842064882     0.006025772692455621
0.15031699567089235       -0.004138891305202216    6.105944372523778E-6     5.54963770624568E-4      -0.006039609694788583    0.01051595552602027      -0.006076245361023735    -0.01047931985978513     0.01047931985978513      0.006076245361023735     -0.01051595552602027     0.006039609694788583
0.15097508374180343       -0.004150469205554799    5.613449659398206E-6     5.586521470800246E-4     -0.0060494894738113      0.010552387348407887     -0.006083170171767699    -0.0105187066504515      0.0105187066504515       0.006083170171767699     -0.010552387348407887    0.0060494894738113
0.15375847386257788       -0.0042009154279939185   3.506211370699926E-6     5.740380302250392E-4     -0.006095160100975574    0.010708501611000088     -0.006116197369199784    -0.010687464342775888    0.010687464342775888     0.006116197369199784     -0.010708501611000088    0.006095160100975574
0.15733196613651024       -0.0042656814788575      8.008055823432874E-7     5.937914000943836E-4     -0.00615379494059043     0.010908930974839559     -0.0061585997740845      -0.0109041261413455      0.0109041261413455       0.0061585997740845       -0.010908930974839559    0.00615379494059043
0.1580627660028093        -0.004279331332523269    3.8470655402996607E-7    5.980341021913667E-4     -0.006165372136618977    0.010951953193474091     -0.006167680375943167    -0.01094964495414991     0.01094964495414991      0.006167680375943167     -0.010951953193474091    0.006165372136618977
0.16113295146231807       -0.004336676146311071    -1.3633796804583146E-6   6.158582465130551E-4     -0.006214009445611292    0.011132695139632984     -0.006205829167528552    -0.01114087541771573     0.01114087541771573      0.006205829167528552     -0.011132695139632984    0.006214009445611292
0.16224348164879424       -0.004360752623724428    -2.461067799024257E-7    6.222825660736383E-4     -0.006233113303494004    0.011209897191403698     -0.0062316366628146005   -0.011211373832083111    0.011211373832083111     0.0062316366628146005    -0.011209897191403698    0.006233113303494004
0.16525358332219606       -0.004419826824249686    9.523357501828851E-7     6.398446012783018E-4     -0.006277418236135611    0.011401889060863122     -0.006283132250636717    -0.011396175046362025    0.011396175046362025     0.006283132250636717     -0.011401889060863122    0.006277418236135611
0.16737833508700425       -0.004460449734016109    1.8094955007316412E-6    6.528285069312301E-4     -0.006304156953805099    0.011537641982259329     -0.0063150139268094985   -0.011526785009254942    0.011526785009254942     0.0063150139268094985    -0.011537641982259329    0.006304156953805099
0.1690683766077746        -0.004492923803955537    2.693900997430181E-6     6.630859465338119E-4     -0.006325422118783532    0.01164627309703861      -0.0063415855247681225   -0.011630109691054026    0.011630109691054026     0.0063415855247681225    -0.01164627309703861     0.006325422118783532
0.17155252527838324       -0.00454635181173405     8.48535280807034E-7      6.781488230328367E-4     -0.006377562725494329    0.011807844521441867     -0.006382653937179181    -0.011802753309757023    0.011802753309757023     0.006382653937179181     -0.011807844521441867    0.006377562725494329
0.17481866339575902       -0.004616462012445819    -1.232380826780556E-6    6.991455732624321E-4     -0.006440038874322249    0.012025809175461023     -0.006432644589361574    -0.012033203460421703    0.012033203460421703     0.006432644589361574     -0.012025809175461023    0.006440038874322249
0.17600698699538603       -0.004641970304834666    -1.9894834448037024E-6   7.06784850266844E-4      -0.006462769658936365    0.012105111560402294     -0.006450832758267552    -0.012117048461071117    0.012117048461071117     0.006450832758267552     -0.012105111560402294    0.006462769658936365
0.17656000626780594       -0.004653722121486265    -1.6646533477824448E-6   7.102547125816288E-4     -0.006471419352689361    0.012143469133255695     -0.006461431432602674    -0.01215345705334239     0.01215345705334239      0.006461431432602674     -0.012143469133255695    0.006471419352689361
0.17817639233973395       -0.004688134794154415    -1.187163388189826E-7    7.203350805558397E-4     -0.006495285415101927    0.01225725376151573      -0.006494573117069022    -0.012257966059548642    0.012257966059548642     0.006494573117069022     -0.01225725376151573     0.006495285415101927
0.17957527951483648       -0.00471968212692272     -4.324954267180542E-7    7.296196537595887E-4     -0.006522183125087238    0.01235654538260364      -0.006519588152526939    -0.012359140355163944    0.012359140355163944     0.006519588152526939     -0.01235654538260364     0.006522183125087238
0.18369213274906857       -0.00481252430980218     -1.3559311946934348E-6   7.569436766705283E-4     -0.006601341706506329    0.01264875553270239      -0.006593206119338177    -0.012656891119870551    0.012656891119870551     0.006593206119338177     -0.01264875553270239     0.006601341706506329
0.18556169808027628       -0.004855424222716682    5.010832533858478E-7     7.690979262330934E-4     -0.006632953490740833    0.012788743400125892     -0.006635959990261157    -0.012785736900605575    0.012785736900605575     0.006635959990261157     -0.012788743400125892    0.006632953490740833
0.18558496091812793       -0.004855946542834261    5.270928916652335E-7     7.692497378836608E-4     -0.006633312855458885    0.012790473315878159     -0.0066364754128088845   -0.012787310758528165    0.012787310758528165     0.0066364754128088845    -0.012790473315878159    0.006633312855458885
0.185599690128113         -0.004856296544613348    5.499636341597413E-7     7.693507180526122E-4     -0.00663354032611377     0.012791645852339622     -0.006636840107918738    -0.01278834607053466     0.01278834607053466      0.006636840107918738     -0.012791645852339622    0.00663354032611377
0.18739860944836023       -0.004898492678924279    1.7491110138719704E-6    7.816477569145452E-4     -0.006665146997148762    0.012928823718548352     -0.0066756416632320036   -0.012918329052465118    0.012918329052465118     0.0066756416632320036    -0.012928823718548352    0.006665146997148762
0.190093358246226         -0.004963747901368158    8.703411323163614E-7     8.004742835063333E-4     -0.006722987645314035    0.013132003960158595     -0.006728209692107941    -0.0131267819133647      0.0131267819133647       0.006728209692107941     -0.013132003960158595    0.006722987645314035
0.19021757814749005       -0.004966755972953665    8.298324555866023E-7     8.013421303632385E-4     -0.006725653927087619    0.013141369964727041     -0.006730632921821147    -0.013136390969993524    0.013136390969993524     0.006730632921821147     -0.013141369964727041    0.006725653927087619
0.19164939682397827       -0.0050030704011529295   1.2064433733208032E-6    8.113146203805009E-4     -0.006757262990663894    0.013255018613947823     -0.0067645016509038265   -0.013247779953707899    0.013247779953707899     0.0067645016509038265    -0.013255018613947823    0.006757262990663894