% Model:              Cylinder_slice_potential_6.mph
% Version:            COMSOL 6.2.0.415
% Date:               May 21 2024, 17:44
% Dimension:          1
% Nodes:              757
% Expressions:        11
% Description:        Line graph
% Arc length (m)          Magnetic scalar potential Magnetic scalar potential Magnetic scalar potential Magnetic scalar potential Magnetic scalar potential Magnetic scalar potential Magnetic scalar potential Magnetic scalar potential Magnetic scalar potential Magnetic scalar potential Magnetic scalar potential
0                         3.791556553400403E-6     -0.024176625993658985    -3.8235290675854795E-7   -0.07252382427949715     -0.07253899050571082     0.07253593168245667      -0.07252076545624309     0.07252076545624309      -0.07253593168245667     0.07253899050571082      0.07252382427949715
0.0041318045095152765     1.0079700910642567E-4    -0.024226076998355113    8.272471142781904E-5     -0.07214573813114117     -0.07254892616756692     0.07321072385898944      -0.0728075358225637      0.0728075358225637       -0.07321072385898944     0.07254892616756692      0.07214573813114117
0.0049281819307826205     1.1732445833670059E-4    -0.024236977634737342    1.0096525285260568E-4    -0.07207242297612816     -0.07254172080947502     0.07334944283229583      -0.07288014499894899     0.07288014499894899      -0.07334944283229583     0.07254172080947502      0.07207242297612816
0.00792914206317359       1.796042454145927E-4     -0.024278054107182666    1.6970042307114296E-4    -0.07179615213843421     -0.07251456912009263     0.07387217250466172      -0.07315375552300334     0.07315375552300334      -0.07387217250466172     0.07251456912009263      0.07179615213843421
0.010454382985914425      2.3472275350600326E-4    -0.02431122343636037     2.265340558033815E-4     -0.07155808857885554     -0.07249697959287961     0.0743092520393066       -0.07337036102528259     0.07337036102528259      -0.0743092520393066      0.07249697959287961      0.07155808857885554
0.010961893849354155      2.458002080890773E-4     -0.024317889649765632    2.3795620794760098E-4    -0.0715102437013283      -0.07249344453368467     0.07439709419726542      -0.0734138933649091      0.0734138933649091       -0.07439709419726542     0.07249344453368467      0.0715102437013283
0.014983604845015198      3.3889759189949297E-4    -0.024366178877123928    3.305480925748092E-4     -0.07109854907727352     -0.07245413944487153     0.07509852418546997      -0.07374293381787198     0.07374293381787198      -0.07509852418546997     0.07245413944487153      0.07109854907727352
0.015026980303869869      3.3991378986877895E-4    -0.02436668884289348     3.315119959863292E-4     -0.07109419096499754     -0.0724538461244727      0.07510594209236329      -0.07374628693288816     0.07374628693288816      -0.07510594209236329     0.0724538461244727       0.07109419096499754
0.015058599963169883      3.407874041642798E-4     -0.024367117082402648    3.3223384405028163E-4    -0.07109084106267824     -0.07245399067933539     0.0751118614317376       -0.07374871181508048     0.07374871181508048      -0.0751118614317376      0.07245399067933539      0.07109084106267824
0.019920552254520354      4.6796494670990824E-4    -0.024430464041274552    4.372523838381062E-4     -0.07060645269505136     -0.07247831248189106     0.07597633155259587      -0.07410447176575621     0.07410447176575621      -0.07597633155259587     0.07247831248189106      0.07060645269505136
0.02562675104448666       6.074536277812474E-4     -0.02451667457884687     5.63724126061275E-4      -0.07008021997673299     -0.07251003448785802     0.07701982749634817      -0.07459001298522314     0.07459001298522314      -0.07701982749634817     0.07251003448785802      0.07008021997673299
0.027377669547958897      6.522297027257247E-4     -0.024543149434060656    6.060019352409987E-4     -0.0699009811557665      -0.07250989996666943     0.07735791544859738      -0.07474899663769445     0.07474899663769445      -0.07735791544859738     0.07250989996666943      0.0699009811557665
0.028850361853292178      6.898907251565173E-4     -0.02456541735542926     6.415616738249796E-4     -0.06975022392067481     -0.07250978682130091     0.07764228021190071      -0.0748827173112746      0.0748827173112746       -0.07764228021190071     0.07250978682130091      0.06975022392067481
0.033439372462596595      8.235187860712013E-4     -0.024635982078841358    7.484855018729155E-4     -0.06926696665688999     -0.07256104180117483     0.0785489258161581       -0.07525485067187329     0.07525485067187329      -0.0785489258161581      0.07256104180117483      0.06926696665688999
0.035704413320463556      8.883997947053263E-4     -0.024673125157730652    8.002674417807179E-4     -0.06904150611665841     -0.07259510529547974     0.07899724482972544      -0.07544364565090413     0.07544364565090413      -0.07899724482972544     0.07259510529547974      0.06904150611665841
0.03740257424420941       9.346240635083611E-4     -0.024699646887300655    8.399204551492209E-4     -0.06887001071428833     -0.0726085069683218      0.07932787060951552      -0.07558937435548208     0.07558937435548208      -0.07932787060951552     0.0726085069683218       0.06887001071428833
0.03860106745777252       9.672472805943794E-4     -0.02471836485004325     8.679059462501754E-4     -0.06874897620394027     -0.07261796532631781     0.07956121289631915      -0.07569222377394164     0.07569222377394164      -0.07956121289631915     0.07261796532631781      0.06874897620394027
0.0413245308183503        0.0010524179010333791    -0.024761916452640344    9.324774000541319E-4     -0.06845100395563773     -0.07266067555977127     0.08012049476020427      -0.07591082315607076     0.07591082315607076      -0.08012049476020427     0.07266067555977127      0.06845100395563773
0.041924689448993746      0.0010711866069662835    -0.02477151374355872     9.467067507605129E-4     -0.06838534101370153     -0.0726700874415667      0.08024374144765074      -0.07595899501978559     0.07595899501978559      -0.08024374144765074     0.0726700874415667       0.06838534101370153
0.04542880694452497       0.0011746782900408515    -0.024833355377173415    0.0010285088927758268    -0.06803667398033522     -0.07273538714049865     0.08096345828270522      -0.0762647451225418      0.0762647451225418       -0.08096345828270522     0.07273538714049865      0.06803667398033522
0.048351773062252856      0.0012636076116633254    -0.024881481400380323    0.0011011602247454825    -0.06771258807883238     -0.0727670185254857      0.08157630032344952      -0.07652186987679618     0.07652186987679618      -0.08157630032344952     0.0727670185254857       0.06771258807883238
0.05021525413114998       0.0013239379976765246    -0.024914099660670576    0.0011467655572513819    -0.06750736075765312     -0.07280311274835925     0.08197723720637028      -0.07668148521566415     0.07668148521566415      -0.08197723720637028     0.07280311274835925      0.06750736075765312
0.052394023796970376      0.0013930855747220727    -0.024954465216604695    0.0011981388144733911    -0.06728466924247635     -0.07285701154136466     0.08244212205715176      -0.07686977975826344     0.07686977975826344      -0.08244212205715176     0.07285701154136466      0.06728466924247635
0.05741824142645338       0.0015514422456079267    -0.025050304717278555    0.0013184159530695114    -0.06677436584834175     -0.07298013483077347     0.08352746245532952      -0.0773216934728978      0.0773216934728978       -0.08352746245532952     0.07298013483077347      0.06677436584834175
0.06108265012063245       0.0016731867645865496    -0.02512473785743115     0.0014081122142320073    -0.0663953911861923      -0.07308813824453851     0.08435303595839454      -0.07766028890004832     0.07766028890004832      -0.08435303595839454     0.07308813824453851      0.0663953911861923
0.0633294371374696        0.0017484606523930763    -0.025169926902064616    0.0014624302018217794    -0.06616313859412054     -0.07315698120369286     0.08485642281826707      -0.07786258020869473     0.07786258020869473      -0.08485642281826707     0.07315698120369286      0.06616313859412054
0.06815228093595585       0.001914795543780707     -0.025257444817928486    0.0015827489982239737    -0.06561174737332812     -0.07327092954845098     0.08593292153424273      -0.07827373935911987     0.07827373935911987      -0.08593292153424273     0.07327092954845098      0.06561174737332812
0.06908492781161649       0.001948842752334392     -0.025276691756660932    0.0016056133646846144    -0.06550993630657552     -0.07330530731591313     0.08615021423339         -0.0783548432240524      0.0783548432240524       -0.08615021423339        0.07330530731591313      0.06550993630657552
0.0699587433057244        0.0019801488840715076    -0.02529548121012193     0.0016272579526746469    -0.06541711405152416     -0.07333770958781023     0.08635577320920737      -0.07843517767292131     0.07843517767292131      -0.08635577320920737     0.07333770958781023      0.06541711405152416
0.07360567666916198       0.0021108073320872628    -0.02537390037889352     0.0017175932358219183    -0.06502971352921834     -0.07347294285756742     0.08721368874414272      -0.07877045941579365     0.07877045941579365      -0.08721368874414272     0.07347294285756742      0.06502971352921834
0.07766324872115235       0.00225128546504781      -0.025458986401919775    0.0018201167832972939    -0.06459392114247452     -0.07359906300266578     0.08815999726904411      -0.07915485540885284     0.07915485540885284      -0.08815999726904411     0.07359906300266578      0.06459392114247452
0.07817520474684456       0.002271419823709543     -0.02546969243929367     0.0018332519256882194    -0.06453322996770904     -0.07361890926254722     0.08828492466805296      -0.07919924537321475     0.07919924537321475      -0.08828492466805296     0.07361890926254722      0.06453322996770904
0.08186781875437156       0.002419479936270929     -0.025542439122002655    0.0019284365901618698    -0.06407461113281862     -0.07375253087790236     0.08918002359919727      -0.07950210385411352     0.07950210385411352      -0.08918002359919727     0.07375253087790236      0.06407461113281862
0.08562209241987487       0.0025625263593982463    -0.02562472204828697     0.0020233156881774407    -0.06365585067335464     -0.07390595611094765     0.09009248161636714      -0.07984237617877411     0.07984237617877411      -0.09009248161636714     0.07390595611094765      0.06365585067335464
0.08679549878395963       0.0026060802836879093    -0.025651455533005796    0.0020530699362607285    -0.06352992628659863     -0.07395424742135032     0.0903788069114361       -0.07995448577668442     0.07995448577668442      -0.0903788069114361      0.07395424742135032      0.06352992628659863
0.08737457811671097       0.0026305940511158255    -0.025664558769391107    0.0020679615575856848    -0.0634606419755989      -0.07398301818006225     0.09052671064074769      -0.08000433443628435     0.08000433443628435      -0.09052671064074769     0.07398301818006225      0.0634606419755989
0.09013019464713887       0.0027372380107590763    -0.025723707272867463    0.0021363699858836186    -0.06315116585354974     -0.07410011789658608     0.09119107778365498      -0.08024212574061865     0.08024212574061865      -0.09119107778365498     0.07410011789658608      0.06315116585354974
0.09148191203455526       0.002789550258461526     -0.02575272149153897     0.0021699264916437955    -0.06299935799111864     -0.07415755902496478     0.09151697095811509      -0.08035876992426898     0.08035876992426898      -0.09151697095811509     0.07415755902496478      0.06299935799111864
0.09409728891999691       0.002902171112307678     -0.02581377786708842     0.0022445850299587624    -0.06265865125681483     -0.07426733570604556     0.09222401594571562      -0.0806153314964849      0.0806153314964849       -0.09222401594571562     0.07426733570604556      0.06265865125681483
0.09560886477168308       0.0029672611435065162    -0.02584906583777661     0.0022877344682929743    -0.06246173735314485     -0.07433078192717094     0.0926326576735147       -0.08076361309948862     0.08076361309948862      -0.0926326576735147      0.07433078192717094      0.06246173735314485
0.09606066010467428       0.002986086570415733     -0.025859845022729172    0.0022997361728640123    -0.06240841723589998     -0.07435276351756293     0.092750652900475        -0.08080630661881208     0.08080630661881208      -0.092750652900475       0.07435276351756293      0.06240841723589998
0.09836284338596632       0.0030843566970966494    -0.0259114585925208      0.0023598566970756832    -0.062126235595066345    -0.07446366238345295     0.0933425159600584       -0.08100508917167179     0.08100508917167179      -0.0933425159600584      0.07446366238345295      0.062126235595066345
0.100151409353691         0.0031607027489743422    -0.025951557169880922    0.002406564326498834     -0.06190700870569874     -0.07454981970159612     0.09380233431358678      -0.08115952331768939     0.08115952331768939      -0.09380233431358678     0.07454981970159612      0.06190700870569874
0.10399764701126298       0.0033293579291002284    -0.0260450884794629      0.0025081705096683194    -0.06144386754151497     -0.07476129925791589     0.09482666333526243      -0.0815092316188615      0.0815092316188615       -0.09482666333526243     0.07476129925791589      0.06144386754151497
0.10577802908586886       0.003407426599374519     -0.026088383117449283    0.0025552029198543987    -0.061229484474181216    -0.0748591908716793      0.09530081423051447      -0.08167110783301638     0.08167110783301638      -0.09530081423051447     0.0748591908716793       0.061229484474181216
0.10593307506932542       0.0034142218917140835    -0.026092040664109906    0.0025594513692142524    -0.06120987273204454     -0.07486676029890088     0.0953423712526149       -0.08168548368575855     0.08168548368575855      -0.0953423712526149      0.07486676029890088      0.06120987273204454
0.10611406794821371       0.0034223163771364153    -0.026096341351890272    0.002564333461401675     -0.06118705745579129     -0.07487632296433694     0.09539099065555036      -0.08170172514700468     0.08170172514700468      -0.09539099065555036     0.07487632296433694      0.06118705745579129
0.10740945668038766       0.0034791832609445974    -0.0261263117673741      0.00260044979273546      -0.061018769609291264    -0.07493550265306965     0.09573910099495334      -0.08182236795117495     0.08182236795117495      -0.09573910099495334     0.07493550265306965      0.061018769609291264
0.10818529720048375       0.003513242251589003     -0.026144261794388342    0.0026220807615635893    -0.06091797783373267     -0.07497094684008868     0.0959475929325974       -0.08189462392624136     0.08189462392624136      -0.0959475929325974      0.07497094684008868      0.06091797783373267
0.10889512120258318       0.0035448479193507304    -0.02616285184763939     0.0026405305020704957    -0.06083673769593473     -0.07501612937333764     0.09614037338990161      -0.08196098171249867     0.08196098171249867      -0.09614037338990161     0.07501612937333764      0.06083673769593473
0.10939020709217315       0.003566892144529952     -0.026175817981531874    0.002653398771056255     -0.0607800745713107      -0.0750476431494305      0.09627483331788055      -0.08200726473976072     0.08200726473976072      -0.09627483331788055     0.0750476431494305       0.0607800745713107
0.11692762424858907       0.00391562214269893      -0.026356620315659662    0.0028600594834991477    -0.059798378727584534    -0.07546086729838025     0.09834134316637343      -0.0826788545955777      0.0826788545955777       -0.09834134316637343     0.07546086729838025      0.059798378727584534
0.1203000344018543        0.004079306407935643     -0.02643487771711931     0.002957425910711165     -0.05931631669264199     -0.07563354232438456     0.09929294961007386      -0.08297572397833128     0.08297572397833128      -0.09929294961007386     0.07563354232438456      0.05931631669264199
0.1233930142400573        0.00423136618881382      -0.026516095092019035    0.0030408830740270305    -0.05892202060232134     -0.07584748535757663     0.10017454994979283      -0.08324908519453754     0.08324908519453754      -0.10017454994979283     0.07584748535757663      0.05892202060232134
0.12707365686257172       0.004412317161645121     -0.026612743679265673    0.0031401970070376616    -0.05845280868635611     -0.07610207733293661     0.10122365338923787      -0.08357438474265737     0.08357438474265737      -0.10122365338923787     0.07610207733293661      0.05845280868635611
0.12792217342785273       0.004453559899763233     -0.026635745703249922    0.0031623843690988156    -0.05835057983382802     -0.07616481943288096     0.10146389438567147      -0.08364965478661851     0.08364965478661851      -0.10146389438567147     0.07616481943288096      0.05835057983382802
0.12855253049055698       0.004485629612067124     -0.02665234073139939     0.0031797834252080964    -0.058266629269231526    -0.07620914771750004     0.10164741511916477      -0.08370489667089626     0.08370489667089626      -0.10164741511916477     0.07620914771750004      0.058266629269231526
0.1340841199903272        0.00477382694780871      -0.026794689039879353    0.0033313368665840054    -0.057511065757684596    -0.07660637354891947     0.10325706848159145      -0.08416176069035661     0.08416176069035661      -0.10325706848159145     0.07660637354891947      0.057511065757684596
0.1360822584419378        0.004879313292752915     -0.02684388791431309     0.003387933654661565     -0.05722130253878718     -0.07673855570979886     0.10384202494709131      -0.08432477177607968     0.08432477177607968      -0.10384202494709131     0.07673855570979886      0.05722130253878718
0.13663506944703482       0.004908988163715586     -0.026858268802510413    0.0034035773731888683    -0.05714252058734459     -0.07677847324220695     0.10400709222771784      -0.08437113957285551     0.08437113957285551      -0.10400709222771784     0.07677847324220695      0.05714252058734459
0.1397265919517416        0.005074940958720577     -0.02693869201964931     0.0034910628020941217    -0.0567019429331303      -0.07700170676801261     0.10493020918476555      -0.08463044534988325     0.08463044534988325      -0.10493020918476555     0.07700170676801261      0.0567019429331303
0.14217489414046203       0.005210479292638642     -0.026999742971553345    0.0035616455509353533    -0.05633168812564134     -0.07717360529619592     0.10566676970367869      -0.08482485253312413     0.08482485253312413      -0.10566676970367869     0.07717360529619592      0.05633168812564134
0.14488169332207407       0.005359275583306802     -0.027070818628007587    0.0036371271512697896    -0.055945396112330015    -0.07738249844555722     0.1064795156557155       -0.0850424133224883      0.0850424133224883       -0.1064795156557155      0.07738249844555722      0.055945396112330015
0.1450337723419925        0.005367858918403445     -0.027074817356182983    0.0036414997648953834    -0.055922735172160544    -0.07739417084577432     0.10652616896493736      -0.08505473329132357     0.08505473329132357      -0.10652616896493736     0.07739417084577432      0.055922735172160544
0.14706411302727676       0.005482451282764355     -0.027128202632523253    0.003699876622859312     -0.05562019884060382     -0.07755000397166123     0.1071490169545357       -0.0852192118234783      0.0852192118234783       -0.1071490169545357      0.07755000397166123      0.05562019884060382
0.14977559334080426       0.005640042909578622     -0.027196574440633177    0.003779276948857945     -0.05519252970731051     -0.07775270134562498     0.10798691693648854      -0.08542674529817405     0.08542674529817405      -0.10798691693648854     0.07775270134562498      0.05519252970731051
0.1506391874778451        0.005689899338402988     -0.027219492357541477    0.0038037509301215057    -0.05506367467533245     -0.07782327202894439     0.10825327946991642      -0.08549368211630448     0.08549368211630448      -0.10825327946991642     0.07782327202894439      0.05506367467533245
0.15368112820221033       0.005865514589488313     -0.027300218872197846    0.003889958556018636     -0.05460979321354238     -0.07807185157149563     0.10919152001964469      -0.08572946166169146     0.08572946166169146      -0.10919152001964469     0.07807185157149563      0.05460979321354238
0.154401634102812         0.005908168524447783     -0.027319365158234007    0.003911001652622653     -0.054497751815315854    -0.07813042591310698     0.10941843913408819      -0.08578576503629709     0.08578576503629709      -0.10941843913408819     0.07813042591310698      0.054497751815315854
0.15683019186683145       0.006056259776773463     -0.027380205603148116    0.003983046884733671     -0.05409590971696274     -0.07832094882405659     0.11018532390192595      -0.0859602847948321      0.0859602847948321       -0.11018532390192595     0.07832094882405659      0.05409590971696274
0.15737629254114643       0.006089560501159508     -0.027393886565769403    0.003999247425820199     -0.05400554899170842     -0.07836379099634645     0.11035777040290802      -0.08599952839827002     0.08599952839827002      -0.11035777040290802     0.07836379099634645      0.05400554899170842
0.15801793980707005       0.0061294325047642735    -0.02741088948137391     0.004017802341897361     -0.05390259406700375     -0.07842032408606085     0.1105627428212397       -0.08604501280218264     0.08604501280218264      -0.1105627428212397      0.07842032408606085      0.05390259406700375
0.16092977210386958       0.006310936383489733     -0.027486679568000827    0.0041016483099624215    -0.05343157269717334     -0.07867531823113227     0.11148850471083162      -0.08624475917687272     0.08624475917687272      -0.11148850471083162     0.07867531823113227      0.05343157269717334
0.16949633193103292       0.006844917628794557     -0.02770965268087857     0.004348321685515408     -0.05204583604298497     -0.07942550655816322     0.11421208004228643      -0.08683240952710823     0.08683240952710823      -0.11421208004228643     0.07942550655816322      0.05204583604298497
0.1706222747496529        0.006915070797372294     -0.027738364032911342    0.004383272514628105     -0.051851860445477016    -0.07951214363496621     0.11457832375199101      -0.08691804056250184     0.08691804056250184      -0.11457832375199101     0.07951214363496621      0.051851860445477016
0.1723983523173143        0.007032834860582667     -0.02778134458540792     0.004435575948862516     -0.05153606023960835     -0.07966739968193903     0.11515200727283913      -0.08702066783050846     0.08702066783050846      -0.11515200727283913     0.07966739968193903      0.05153606023960835
0.17252091310108902       0.007041037523162539     -0.027784278696382503    0.004439208157318973     -0.051513928413546524    -0.0796780785061967      0.11519174376474846      -0.0870275936720983      0.0870275936720983       -0.11519174376474846     0.0796780785061967       0.051513928413546524
0.1725324602821402        0.007041805769262571     -0.02778457568911617     0.004439547507535899     -0.05151192549867975     -0.07967914857573007     0.11519552863601722      -0.08702830555896696     0.08702830555896696      -0.11519552863601722     0.07967914857573007      0.05151192549867975
0.17381322514141517       0.007127016402388829     -0.027817516876670993    0.004477186809362001     -0.05128977058778731     -0.07979783619734265     0.11561533067223861      -0.08710726506268332     0.08710726506268332      -0.11561533067223861     0.07979783619734265      0.05128977058778731
0.1788768016881465        0.007464008119936483     -0.027947037280233886    0.00462596514349081      -0.05040923502686546     -0.0802652675066114      0.11727298865453785      -0.08741695617479193     0.08741695617479193      -0.11727298865453785     0.0802652675066114       0.05040923502686546
0.1790798801700369        0.007478211797661273     -0.02795182368837324     0.004631997805336627     -0.05037105624845066     -0.08028390343909578     0.11733988588178876      -0.0874270386911437      0.0874270386911437       -0.11733988588178876     0.08028390343909578      0.05037105624845066
0.1855974181137004        0.00793406023442892      -0.028105437189772826    0.004825608187467762     -0.04914575835058961     -0.08088199928830529     0.11948686478804735      -0.08775062385033167     0.08775062385033167      -0.11948686478804735     0.08088199928830529      0.04914575835058961
0.18671501191594592       0.008012241669963165     -0.02813323394431447     0.004859027340218599     -0.04893910913214271     -0.08098807581199537     0.11986029453374411      -0.08781132785389147     0.08781132785389147      -0.11986029453374411     0.08098807581199537      0.04893910913214271
0.18853341740560367       0.008141335515871196     -0.0281797449615286      0.004912470127727308     -0.048606683341934166    -0.08117202540541896     0.1204717864272374       -0.08790644436375261     0.08790644436375261      -0.1204717864272374      0.08117202540541896      0.048606683341934166
0.19016203368675874       0.00826065894757962      -0.028215363325849174    0.004959886416728405     -0.048285226415474655    -0.08132786220579315     0.12100695353962035      -0.08796431774930187     0.08796431774930187      -0.12100695353962035     0.08132786220579315      0.048285226415474655
0.19255641205321827       0.008434482875297387     -0.02826929689993682     0.005032387248946786     -0.04780937595342853     -0.0815473074546181      0.12180640544619231      -0.08806847394500278     0.08806847394500278      -0.12180640544619231     0.0815473074546181       0.04780937595342853
0.1929806467901719        0.00846528091009614      -0.028278852823067663    0.005045232909397087     -0.04772506501142235     -0.08158618865180692     0.12194805192698355      -0.08808692828659902     0.08808692828659902      -0.12194805192698355     0.08158618865180692      0.04772506501142235
0.19395315104822902       0.008536172462840183     -0.028303409518654385    0.005075062915161561     -0.04753763196963655     -0.08168232182099729     0.12228282514228969      -0.08813813529092901     0.08813813529092901      -0.12228282514228969     0.08168232182099729      0.04753763196963655
0.19651758449409884       0.008726041044663905     -0.028360279707803526    0.005151876552174977     -0.04702125082538287     -0.08192541500403851     0.12314042742143827      -0.08823626324278264     0.08823626324278264      -0.12314042742143827     0.08192541500403851      0.04702125082538287
0.19672874718882888       0.008741675360090196     -0.028364962559842395    0.00515820160405335      -0.04697873054313341     -0.08194543198349422     0.12321104481592093      -0.08824434337556017     0.08824434337556017      -0.12321104481592093     0.08194543198349422      0.04697873054313341
0.1978623731099201        0.008826882505006345     -0.02839132257730503     0.005192413959014663     -0.04675054688584376     -0.08205807690586917     0.12359738857798638      -0.08828985855796104     0.08828985855796104      -0.12359738857798638     0.08205807690586917      0.04675054688584376
0.1988067500874512        0.00889753852910975      -0.02841171259643514     0.005220624605179252     -0.0465575623103689      -0.08214771642680795     0.1239127132682419       -0.08832255915180288     0.08832255915180288      -0.1239127132682419      0.08214771642680795      0.0465575623103689
0.19987777461058545       0.0089788175360983       -0.02843489992620346     0.005252112370467258     -0.04633861522454476     -0.08225388536893799     0.124270784332676        -0.08835551418828279     0.08835551418828279      -0.124270784332676       0.08225388536893799      0.04633861522454476
0.20026584280495605       0.009008403424343035     -0.02844385648171923     0.0052635372148525875    -0.04626061373706127     -0.08229422743443343     0.12440252515325408      -0.08836891145588192     0.08836891145588192      -0.12440252515325408     0.08229422743443343      0.04626061373706127
0.20104653791438545       0.00906792275263597      -0.028461874807338076    0.005286521113731714     -0.04610369446181545     -0.08237538547235937     0.124667554382213        -0.08839586337166913     0.08839586337166913      -0.124667554382213       0.08237538547235937      0.04610369446181545
0.20202684598494897       0.009145617730797997     -0.028481644978002832    0.005315668444566134     -0.04589102569414796     -0.08247349661733998     0.12499884417386897      -0.088416373250677       0.088416373250677        -0.12499884417386897     0.08247349661733998      0.04589102569414796
0.20259173182507242       0.009190388139540222     -0.028493037202346066    0.005332464097851221     -0.045768478936552864    -0.08253003149471379     0.1251897442775235       -0.08842819171936261     0.08842819171936261      -0.1251897442775235      0.08253003149471379      0.045768478936552864
0.2058773489787257        0.009441915798832348     -0.02856480999382917     0.0054323035028849415    -0.04508138437228305     -0.08284904756761245     0.1263074755906919       -0.08853981239536254     0.08853981239536254      -0.1263074755906919      0.08284904756761245      0.04508138437228305
0.20622184630794935       0.0094682956230444       -0.0285719527038943      0.005442553942000264     -0.04500905109759306     -0.08288223358977066     0.12642266512577272      -0.08854948263359513     0.08854948263359513      -0.12642266512577272     0.08288223358977066      0.04500905109759306