% Model:              Cylinder_slice_potential_4.mph
% Version:            COMSOL 6.2.0.415
% Date:               May 17 2024, 21:55
% Dimension:          1
% Nodes:              809
% Expressions:        11
% Description:        Line graph
% Arc length (m)          Magnetic scalar potential Magnetic scalar potential Magnetic scalar potential Magnetic scalar potential Magnetic scalar potential Magnetic scalar potential Magnetic scalar potential Magnetic scalar potential Magnetic scalar potential Magnetic scalar potential Magnetic scalar potential
0                         -2.7163301838596093E-7   -1.1237799156788823E-7   -1.2439317680971463E-7   -1.3779727187208281E-6   -2.9144064515495476E-7   -7.037047692710763E-7    -3.828273042711411E-7    3.828273042711411E-7     7.037047692633311E-7     2.9144064515495476E-7    1.3779727187208281E-6
0.00288684583846863       -1.5423294043265796E-4   -1.2165545365598987E-7   -1.1485776550000963E-7   -3.0929027828829024E-4   3.0764148344236247E-4    -3.085603455663116E-4    -3.0837141616431757E-4   3.0837141616431757E-4    3.0856034556630424E-4    -3.0764148344236247E-4   3.0929027828829024E-4
0.002988033768241088      -1.5962946129504315E-4   -1.217729410389121E-7    -1.1462847328063671E-7   -3.2008275530633214E-4   3.184350898738613E-4     -3.1935211766005576E-4   -3.191657275201141E-4    3.191657275201141E-4     3.1935211766004817E-4    -3.184350898738613E-4    3.2008275530633214E-4
0.003204774534563113      -1.711868057054437E-4    -1.1992328995542817E-7   -1.1482413661944069E-7   -3.431926778272378E-4    3.415545449945577E-4     -3.424731380874623E-4    -3.422740847343097E-4    3.422740847343097E-4     3.4247313808745465E-4    -3.415545449945577E-4    3.431926778272378E-4
0.006180523309532889      -3.298702943060006E-4    -1.0025552080401482E-7   -1.4898575628564891E-7   -6.606372981995608E-4    6.588438790244618E-4     -6.60035765074693E-4     -6.594454121493054E-4    6.594454121493054E-4     6.600357650746851E-4     -6.588438790244618E-4    6.606372981995608E-4
0.007170708396891786      -3.826719845629916E-4    -1.1328149403483872E-7   -1.0715283148783433E-7   -7.661124249340431E-4    7.645755133179426E-4     -7.654327359697918E-4    -7.652552022821718E-4    7.652552022821718E-4     7.654327359697837E-4     -7.645755133179426E-4    7.661124249340431E-4
0.008840800787076147      -4.7174645006312196E-4   -1.0084867114563631E-7   -1.0752725490785317E-7   -9.442255551593169E-4    9.427602450931911E-4     -9.436204631324005E-4    -9.433653371200849E-4    9.433653371200849E-4     9.436204631323923E-4     -9.427602450931911E-4    9.442255551593169E-4
0.011483236237507227      -6.126826691944076E-4    -1.2679795473027812E-7   -8.742212665622084E-8    -0.0012260954207596363   0.001224635256018014     -0.0012253346330312134   -0.0012253960437464157   0.0012253960437464157    0.0012253346330312058    -0.001224635256018014    0.0012260954207596363
0.011699554214330034      -6.242177660870139E-4    -1.2811206936342895E-7   -8.725499358950867E-8    -0.0012491688883564814   0.001247702175991594     -0.0012484002159402594   -0.0012484708484077945   0.0012484708484077945    0.001248400215940252     -0.001247702175991594    0.0012491688883564814
0.01320814397071523       -7.046629018389566E-4    -1.3727663304607582E-7   -8.608941670973947E-8    -0.0014100819912438952   0.0014085696161119513    -0.0014092583314455783   -0.0014093932759102479   0.0014093932759102479    0.0014092583314455707    -0.0014085696161119513   0.0014100819912438952
0.013526357486925805      -7.216382365401095E-4    -1.3414597467102652E-7   -8.977271772129792E-8    -0.001444038001875122    0.0014425149442853363    -0.0014432331260270555   -0.0014433198201333824   0.0014433198201333824    0.0014432331260270475    -0.0014425149442853363   0.001444038001875122
0.01451868972650153       -7.745749316941757E-4    -1.2438317994874985E-7   -1.0125889965778818E-7   -0.001549928048526833    0.0015483716782498898    -0.0015491817494471005   -0.0015491179773296018   0.0015491179773296018    0.0015491817494470924    -0.0015483716782498898   0.001549928048526833
0.01609930742098313       -8.588659899754721E-4    -1.2038194014738868E-7   -1.0171416877193827E-7   -0.0017184999824464782   0.0017169639774554306    -0.0017177776908055536   -0.001717686269096335    0.001717686269096335     0.0017177776908055458    -0.0017169639774554306   0.0017184999824464782
0.01632415964887457       -8.708559180106832E-4    -1.2208921933462124E-7   -1.0208504513647724E-7   -0.00174248644385992     0.0017409372281828328    -0.001741753908543872    -0.0017416697634988604   0.0017416697634988604    0.0017417539085438642    -0.0017409372281828328   0.00174248644385992
0.019245579544538673      -0.0010266365150637755   -1.4427125164820853E-7   -1.0690370137350136E-7   -0.002054133458687993    0.002052412601567128     -0.0020532678311780644   -0.0020532782290770385   0.0020532782290770385    0.0020532678311780566    -0.002052412601567128    0.002054133458687993
0.021669945319961734      -0.0011559633409248663   -1.2409990110901967E-7   -1.408375133835712E-7    -0.0023128623316065974   0.0023109910320928866    -0.002312117732199904    -0.0023117356314995615   0.0023117356314995615    0.002312117732199896     -0.0023109910320928866   0.0023128623316065974
0.022191865656189226      -0.0011838049732069734   -1.1975738886838846E-7   -1.4814282463371538E-7   -0.0023685617898790905   0.002366658102948823     -0.0023678432455458407   -0.0023673766472820535   0.0023673766472820535    0.0023678432455458325    -0.002366658102948823    0.0023685617898790905
0.024055214518821345      -0.0012832119384261881   -9.52375586983986E-8     -1.7412310336625237E-7   -0.0025674060819419406   0.002565441671762832     -0.0025668346565897106   -0.002566013097115042    0.002566013097115042     0.0025668346565897024    -0.002565441671762832    0.0025674060819419406
0.02478898905890006       -0.0013223568363231767   -8.74554552097011E-8     -1.7977282108901508E-7   -0.002645695130296343    0.0026437322149963846    -0.002645170397565045    -0.0026442569477276626   0.0026442569477276626    0.0026451703975650365    -0.0026437322149963846   0.002645695130296343
0.02514323185378223       -0.0013412547365350307   -8.369850543930656E-8    -1.8250032345804917E-7   -0.0026834905698802157   0.0026815283762599276    -0.0026829883788475404   -0.0026820305672925833   0.0026820305672925833    0.0026829883788475318    -0.0026815283762599276   0.0026834905698802157
0.025466994375081972      -0.0013585258662110284   -8.301427151429435E-8    -1.7839066456661078E-7   -0.0027180143378948704   0.002716089126949264     -0.0027175162522657453   -0.002716587212578369    0.002716587212578369     0.002717516252265736     -0.002716089126949264    0.0027180143378948704
0.027595025190519172      -0.001472027148802439    -8.538050055155826E-8    -1.4870908303734687E-7   -0.002944905275438686    0.0029432033197710895    -0.0029443929924353367   -0.0029437156027744193   0.0029437156027744193    0.002944392992435328     -0.0029432033197710895   0.002944905275438686
0.029146907245213474      -0.0015547987902470245   -8.71060904037834E-8     -1.270635723632909E-7    -0.0031103671530547166   0.0031088280079333993    -0.0031098445165122545   -0.003109350644475843    0.003109350644475843     0.003109844516512246     -0.0031088280079333993   0.0031103671530547166
0.031247081692263964      -0.0016668166663790526   -1.0098872833014819E-7   -8.789852423416195E-8    -0.0033342878930400347   0.0033329787724761927    -0.003333681960670015    -0.003333584704846195    0.003333584704846195     0.003333681960670006     -0.0033329787724761927   0.0033342878930400347
0.03229976274182635       -0.0017229894901048374   -9.764466177583457E-8    -8.831535903377715E-8    -0.0034466251756311407   0.003445332784788227     -0.0034460393076604467   -0.0034459186527589034   0.0034459186527589034    0.0034460393076604385    -0.003445332784788227    0.0034466251756311407
0.035109753745735384      -0.0018729492155647736   -9.211348549685008E-8    -1.0701457998835938E-7   -0.0037466028299059954   0.0037451940323531187    -0.003746050148992975    -0.0037457467132661205   0.0037457467132661205    0.003746050148992967     -0.0037451940323531187   0.0037466028299059954
0.0372110532639158        -0.0019850783005247157   -9.392013386172319E-8    -9.470348137540352E-8    -0.003970817175376522    0.00396949602672236      -0.003970253654573312    -0.003970059547525551    0.003970059547525551     0.003970253654573304     -0.00396949602672236     0.003970817175376522
0.04015916493894381       -0.0021423947904494183   -9.645485158811664E-8    -7.743107768460023E-8    -0.004285388669764344    0.004284190492033348     -0.004284809940654774    -0.004284769221142897    0.004284769221142897     0.004284809940654767     -0.004284190492033348    0.004285388669764344
0.04232880515022478       -0.0022581751609884655   -9.582274986939487E-8    -1.0452226194420524E-7   -0.00451705587927432     0.004515644764679562     -0.004516480942775063    -0.0045162197011787975   0.0045162197011787975    0.0045164809427750575    -0.004515644764679562    0.00451705587927432
0.044678367096654195      -0.0023835449239413688   -9.25710641817875E-8     -1.5767601307667057E-7   -0.0047679982651275925   0.0047661814306379       -0.004767442838742463    -0.00476673685702301     0.00476673685702301      0.004767442838742456     -0.0047661814306379      0.0047679982651275925
0.046619075985541374      -0.0024871236651914574   -9.232700446313143E-8    -1.1193046122188997E-7   -0.0049749720332411965   0.004973522627524653     -0.004974418071214378    -0.004974076589551449    0.004974076589551449     0.004974418071214371     -0.004973522627524653    0.0049749720332411965
0.04976279887990406       -0.002654910029419929    -9.837318984838632E-8    -9.608715862484314E-8    -0.005310499527043909    0.005309140590635828     -0.005309909287904778    -0.005309730829774936    0.005309730829774936     0.005309909287904772     -0.005309140590635828    0.005310499527043909
0.049815089579109316      -0.00265770088173021     -9.847375827377278E-8    -9.582363114536898E-8    -0.005316080479259829    0.005314723047661031     -0.005315489636710145    -0.005315313890210692    0.005315313890210692     0.005315489636710139     -0.005314723047661031    0.005316080479259829
0.05302693125005506       -0.0028291670452420367   -1.0263777222002516E-7   -5.4269328765429733E-8   -0.0056588590811158      0.005657809099852364     -0.005658243254482441    -0.005658424926485703    0.005658424926485703     0.005658243254482433     -0.005657809099852364    0.0056588590811158
0.05414915309882786       -0.002889067830101875    -1.040340283410421E-7    -3.17239860777196E-8     -0.0057785746582330886   0.005777696662174428     -0.005777950454063004    -0.005778320866344493    0.005778320866344493     0.005777950454062995     -0.005777696662174428    0.0057785746582330886
0.05500527782712044       -0.002934780837223236    -1.029845933352582E-7    -4.2101240904536814E-8   -0.0058700390331901005   0.00586908431570286      -0.00586942112563005     -0.00586970222326289     0.00586970222326289      0.0058694211256300425    -0.00586908431570286     0.0058700390331901005
0.05510433774975244       -0.0029400701680871505   -1.0286316599294242E-7   -4.3301965549384833E-8   -0.0058806221335344815   0.005879658538814135     -0.005880004954538484    -0.0058802757178101125   0.0058802757178101125    0.005880004954538477     -0.005879658538814135    0.0058806221335344815
0.05826623351462677       -0.0031088437963748385   -8.92752149727515E-8     -9.425416513631604E-8    -0.006218332435055145    0.006217042750444224     -0.006217796783765269    -0.006217578401734078    0.006217578401734078     0.00621779678376526      -0.006217042750444224    0.006218332435055145
0.06137915891919518       -0.003275085577265763    -1.0365266345089457E-7   -1.3011628150839115E-7   -0.006551002577647916    0.0065493397314151484    -0.006550380661667172    -0.006549961647395871    0.006549961647395871     0.0065503806616671635    -0.0065493397314151484   0.006551002577647916
0.06197422685566853       -0.003306859150067588    -1.0454889574301014E-7   -1.277980688405317E-7    -0.00661454313909777     0.006612893461172593     -0.006613915845723273    -0.006613520754547068    0.006613520754547068     0.0066139158457232654    -0.006612893461172593    0.00661454313909777
0.06255005968024613       -0.0033376077483821005   -1.0189834629851851E-7   -1.331798950535944E-7    -0.0066760539113833155   0.0066743770821451       -0.006675442521305485    -0.006674988472222908    0.006674988472222908     0.006675442521305477     -0.0066743770821451      0.0066760539113833155
0.06396322442204314       -0.003413062182168353    -9.454380569719884E-8    -1.4382171775469448E-7   -0.006826983282624821    0.006825265446048606     -0.0068264160197906      -0.006825832708882806    0.006825832708882806     0.006826416019790591     -0.006825265446048606    0.006826983282624821
0.07074165839752275       -0.0037749894808405014   -5.926676657251671E-8    -1.9486664579784792E-7   -0.007550936228563921    0.007549021694798106     -0.0075505806279644455   -0.007549377295397558    0.007549377295397558     0.007550580627964439     -0.007549021694798106    0.007550936228563921
0.07119735035275036       -0.003799325141458318    -5.953978181605379E-8    -1.8935778550955073E-7   -0.007599586333404129    0.00759771423242916      -0.007599229094713195    -0.007598071471120073    0.007598071471120073     0.007599229094713187     -0.00759771423242916     0.007599586333404129
0.07755772096947203       -0.004139009248830752    -8.163956587937059E-8    -1.6559160320550643E-7   -0.008278925782771972    0.008277111212551057     -0.00827843594537666     -0.008277601049946348    0.008277601049946348     0.008278435945376653     -0.008277111212551057    0.008278925782771972
0.07788169158249911       -0.004156313266476872    -8.113724714787932E-8    -1.65616266946571E-7     -0.00831353240976298     0.008311720656144526     -0.00831304558628006     -0.00831220747962743     0.00831220747962743      0.008313045586280052     -0.008311720656144526    0.00831353240976298
0.08307200475762906       -0.004433516385825923    -7.401182773268802E-8    -1.5005112144685346E-7   -0.008867855011620837    0.008866210531682872     -0.008867410940654408    -0.008866654602649283    0.008866654602649283     0.0088674109406544       -0.008866210531682872    0.008867855011620837
0.08711239626785472       -0.004649304738519676    -6.846505567084611E-8    -1.379344572667724E-7    -0.009299366610035437    0.009297852344043284     -0.009298955819701379    -0.009298263134377323    0.009298263134377323     0.00929895581970137      -0.009297852344043284    0.009299366610035437
0.08725955604784097       -0.00465716380943491     -6.8127074529061E-8      -1.3827462373189822E-7   -0.009315085098588343    0.009313570139151319     -0.009314676336141133    -0.009313978901598506    0.009313978901598506     0.009314676336141125     -0.009313570139151319    0.009315085098588343
0.09007604792126477       -0.004807595158926271    -5.970672050505468E-8    -1.3497597830832098E-7   -0.0096159093419273      0.009614471293777807     -0.009615551101604235    -0.009614829534100849    0.009614829534100849     0.009615551101604225     -0.009614471293777807    0.0096159093419273
0.09365587490228519       -0.004998709450750881    -5.876445475131673E-8    -8.605607717183498E-8    -0.009997939419174713    0.009996898383828834     -0.009997586832446172    -0.009997250970557352    0.009997250970557352     0.009997586832446162     -0.009996898383828834    0.009997939419174713
0.0957712276328943        -0.005111661230085437    -5.339696120758541E-8    -7.410529760043787E-8    -0.01022377907224491     0.010222865848096863     -0.01022345869047763     -0.01022318622986412     0.01022318622986412      0.01022345869047762      -0.010222865848096863    0.01022377907224491
0.09752370540367837       -0.005205233693800186    -4.88484875044171E-8     -1.3112139595198478E-7   -0.010411138418646704    0.010409796356554065     -0.010410845327721643    -0.010410089447479101    0.010410089447479101     0.010410845327721635     -0.010409796356554065    0.010411138418646704
0.09799006990146349       -0.005230123541927681    -4.8909577464747477E-8   -1.4046748741725497E-7   -0.010460955682537437    0.010459538485173314     -0.010460662225072616    -0.010459831942638111    0.010459831942638111     0.010460662225072607     -0.010459538485173314    0.010460955682537437
0.10056678911490546       -0.0053676238484190435   -5.2679583161831245E-8   -1.762656193556787E-7    -0.010736110798065007    0.01073438459561119      -0.010735794720566       -0.010734700673110172    0.010734700673110172     0.010735794720565992     -0.01073438459561119     0.010736110798065007
0.10371763520846701       -0.0055358160093794484   -5.523334682769218E-8    -1.7027976366751324E-7   -0.011072478837854057    0.01107078519966375      -0.01107214743777306     -0.011071116599744732    0.011071116599744732     0.011072147437773051     -0.01107078519966375     0.011072478837854057
0.1044300589979339        -0.005573845190466676    -5.5810766966359396E-8   -1.6892632847392985E-7   -0.011148533518548156    0.011146847243318565     -0.011148198653946326    -0.011147182107920378    0.011147182107920378     0.011148198653946317     -0.011146847243318565    0.011148533518548156
0.106483517217392         -0.005683365937364704    -5.336411871149143E-8    -1.322101838866953E-7    -0.011367420807821098    0.011366042941637733     -0.011367100623108797    -0.011366363126350016    0.011366363126350016     0.011367100623108788     -0.011366042941637733    0.011367420807821098
0.10829990721051139       -0.005780242702043673    -5.119993179756823E-8    -9.973285516277373E-8    -0.0115610379353034      0.011559932872871312     -0.011560730735712583    -0.011560240072462109    0.011560240072462109     0.011560730735712572     -0.011559932872871312    0.0115610379353034
0.1105696790661492        -0.0059013018666579185   -4.749445354427888E-8    -5.517695484575768E-8    -0.011802966924495863    0.011802240542135831     -0.011802681957774567    -0.011802525508857107    0.011802525508857107     0.011802681957774556     -0.011802240542135831    0.011802966924495863
0.11104997658732828       -0.005926908283921884    -4.774883021159209E-8    -4.346230846281029E-8    -0.011854133663568266    0.011853499472119292     -0.011853847170586965    -0.011853785965100574    0.011853785965100574     0.011853847170586953     -0.011853499472119292    0.011854133663568266
0.11175967537069131       -0.005964764437416991    -4.895474050786784E-8    -3.297438898280151E-8    -0.011929807636611446    0.011929250113056535     -0.01192951390816837     -0.011929543841499595    0.011929543841499595     0.011929513908168357     -0.011929250113056535    0.011929807636611446
0.11226154542998153       -0.005991536534063941    -4.945101696963365E-8    -3.0367467229089963E-8   -0.011983342891047716    0.011982803245208064     -0.011983046184945868    -0.011983099951309896    0.011983099951309896     0.011983046184945856     -0.011982803245208064    0.011983342891047716
0.11239360347475863       -0.0059985751990387845   -4.991794779182009E-8    -3.437042154207872E-8    -0.011997437633607121    0.01199686316254803      -0.01199713812592034     -0.011997162670234797    0.011997162670234797     0.011997138125920327     -0.01199686316254803     0.011997437633607121
0.11259326928827468       -0.006009228498656917    -5.020638424717039E-8    -3.835374855748543E-8    -0.012018761031460816    0.01201815296316687      -0.0120184597931553      -0.012018454201472366    0.012018454201472366     0.01201845979315529      -0.01201815296316687     0.012018761031460816
0.1130139161891493        -0.006031672388221903    -5.0814049119252114E-8   -4.674564166474624E-8    -0.01206368420115783     0.012063005351729795     -0.012063379316863082    -0.012063310236024524    0.012063310236024524     0.012063379316863071     -0.012063005351729795    0.01206368420115783
0.11455604217551826       -0.006113862057604476    -4.9381672502168896E-8   -7.382444985504366E-8    -0.012228167558025888    0.012227280672392033     -0.012227871267990843    -0.012227576962427059    0.012227576962427059     0.012227871267990832     -0.012227280672392033    0.012228167558025888
0.11877150668322611       -0.006338530883138155    -4.546621238778912E-8    -1.4784548046216982E-7   -0.012677789546835332    0.012676333985717306     -0.012677516749560976    -0.012676606782991647    0.012676606782991647     0.012677516749560965     -0.012676333985717306    0.012677789546835332
0.11973890217750698       -0.006390095095444587    -4.4066968982408886E-8   -1.5496761590811056E-7   -0.012780942262259764    0.012779438119518602     -0.01278067786044584     -0.012779702521332509    0.012779702521332509     0.01278067786044583      -0.012779438119518602    0.012780942262259764
0.12001555364071123       -0.006404842474176131    -4.400626645752187E-8    -1.433924130992509E-7    -0.012810390536804042    0.012808979359900502     -0.012810126499205269    -0.012809243397499259    0.012809243397499259     0.012810126499205259     -0.012808979359900502    0.012810390536804042
0.12141505232683929       -0.006479411545554519    -4.4997201751388426E-8   -7.802848427679123E-8    -0.012959270196651409    0.012958375985566683     -0.012959000213440871    -0.012958645968777206    0.012958645968777206     0.01295900021344086      -0.012958375985566683    0.012959270196651409
0.12231677744675785       -0.00652736924625311     -3.58830919984076E-8     -7.47913794774042E-8     -0.01305514530730013     0.013054331677712321     -0.01305493000874811     -0.013054546976264323    0.013054546976264323     0.013054930008748102     -0.013054331677712321    0.01305514530730013
0.12406252815963975       -0.006620246886916575    -2.50533600198267E-8     -6.42301543822883E-8     -0.013240825854530746    0.013240161693135567     -0.013240675534370595    -0.013240312013295698    0.013240312013295698     0.013240675534370586     -0.013240161693135567    0.013240825854530746
0.12518753159674184       -0.006680122971608402    -1.562337251202208E-8    -9.499992697009708E-8    -0.013360672813042231    0.013359819073391396     -0.013360579072807126    -0.01335991281362648     0.01335991281362648      0.013360579072807119     -0.013359819073391396    0.013360672813042231
0.12656753444909047       -0.006753570896243224    -4.055932601007475E-9    -1.327441440426125E-7    -0.013507684936860432    0.013506598648112482     -0.013507660601264793    -0.0135066229837081      0.0135066229837081       0.013507660601264786     -0.013506598648112482    0.013507684936860432
0.12926112424619635       -0.006896882260179045    -1.4851681037980971E-8   -1.2278612725004403E-7   -0.013794300219910216    0.013793228820805987     -0.013794211109823953    -0.013793317930892224    0.013793317930892224     0.013794211109823946     -0.013793228820805987    0.013794300219910216
0.13122834237944997       -0.0070014087666480495   1.948374274646312E-8     -1.5932325803127628E-7   -0.014003396375099994    0.014002238691492221     -0.014003513277556438    -0.014002121789035753    0.014002121789035753     0.014003513277556431     -0.014002238691492221    0.014003396375099994
0.13138199001715625       -0.007009580009727281    2.1299100135452245E-8    -1.661808307162957E-7    -0.014019760845477033    0.014018559193432114     -0.014019888640077811    -0.014018431398831311    0.014018431398831311     0.014019888640077801     -0.014018559193432114    0.014019760845477033
0.13150449780297624       -0.0070160874815245605   2.2300692972468525E-8    -1.744612002822E-7       -0.014032805905771342    0.01403154402032692      -0.014032939709929144    -0.014031410216169094    0.014031410216169094     0.014032939709929134     -0.01403154402032692     0.014032805905771342
0.13658622708963356       -0.007286247631400924    1.249858318012572E-8     -2.036721539594078E-7    -0.014573272455668156    0.01457171806993556      -0.014573347447167206    -0.014571643078436489    0.014571643078436489     0.014573347447167196     -0.01457171806993556     0.014573272455668156
0.13862190099768779       -0.007394453937092862    -3.0855485489913884E-9   -1.9012769973421987E-7   -0.014789677641630323    0.01478813810674115      -0.014789659128338998    -0.014788156620032454    0.014788156620032454     0.014789659128338987     -0.01478813810674115     0.014789677641630323
0.1398194106231654        -0.00745799564479996     -3.6490569389578805E-8   -2.173233235553374E-7    -0.014916970054602326    0.01491501252459754      -0.014916751111185955    -0.014915231468013889    0.014915231468013889     0.014916751111185945     -0.01491501252459754     0.014916970054602326
0.1423617523045345        -0.007592861163675213    -6.399904756155254E-8    3.48966166394881E-8      -0.015185774738026566    0.015185669916674308     -0.015185390743741166    -0.015186053910959688    0.015186053910959688     0.015185390743741155     -0.015185669916674308    0.015185774738026566
0.14325229047972676       -0.007640129299619982    -7.451998423372387E-8    1.0393846542964954E-7    -0.015280066405330958    0.015280450793148988     -0.015279619285425525    -0.0152808979130544      0.0152808979130544       0.015279619285425514     -0.015280450793148988    0.015280066405330958
0.14381159563204204       -0.007669764971271709    -6.23955529352078E-8     1.2233215132067045E-7    -0.015339227800596952    0.0153398320844899       -0.015338853427279312    -0.015340206457807523    0.015340206457807523     0.0153388534272793       -0.0153398320844899      0.015339227800596952
0.14611319401359826       -0.007791705270962497    -5.31954968685183E-8     -8.821566308710018E-8    -0.015583922991067964    0.01558289809278205      -0.01558360381808672     -0.01558321726576327     0.01558321726576327      0.015583603818086707     -0.01558289809278205     0.015583922991067964
0.14753467269580514       -0.00786701621048235     -4.751349618640634E-8    -2.1825104726370272E-7   -0.015735047965642332    0.015733016876287097     -0.01573476288466518     -0.015733301957264224    0.015733301957264224     0.015734762884665167     -0.015733016876287097    0.015735047965642332
0.1477001117097525        -0.007875794355722847    -4.746019304631649E-8    -2.0796146632624463E-7   -0.015752562937890156    0.015750614485001264     -0.015752278176731846    -0.01575089924615955     0.01575089924615955      0.015752278176731836     -0.015750614485001264    0.015752562937890156
0.1478512955258566        -0.007883767352076713    -5.183390068146492E-8    -1.9346801344820504E-7   -0.015768464077909283    0.015766605330397605     -0.015768153074505162    -0.015766916333801704    0.015766916333801704     0.015768153074505152     -0.015766605330397605    0.015768464077909283
0.15100107601037807       -0.008049993487719852    -1.4732969717323337E-7   -4.1319789303093465E-7   -0.016102081756103365    0.016097892194776073     -0.01610119777792029     -0.01609877617295912     0.01609877617295912      0.01610119777792028      -0.016097892194776073    0.016102081756103365
0.15102253209162753       -0.008051125808365582    -1.4798020776567352E-7   -4.146946773855579E-7    -0.01610435433606402     0.016100148897398338     -0.016103466454817392    -0.016101036778644943    0.016101036778644943     0.016103466454817382     -0.016100148897398338    0.01610435433606402
0.15120924595482851       -0.008061001627659731    -1.467014125868827E-7    -4.0664216327366004E-7   -0.016124069928210333    0.016119936582428617     -0.016123189719734782    -0.01612081679090415     0.01612081679090415      0.01612318971973477      -0.016119936582428617    0.016124069928210333
0.15567899790085887       -0.008297438528486065    -1.0744716911949975E-7   -2.2036459906655225E-7   -0.01659608085687577     0.016593673257068516     -0.016595436173861024    -0.016594317940083245    0.016594317940083245     0.016595436173861014     -0.016593673257068516    0.01659608085687577
0.15684970245033927       -0.008359365400224049    -9.716581078719511E-8    -1.715753162346389E-7    -0.016719708599145417    0.01671775300175081      -0.01671912560428066     -0.016718335996615544    0.016718335996615544     0.01671912560428065      -0.01671775300175081     0.016719708599145417
0.15927065441704563       -0.008486708692277106    -1.674371371089816E-7    -4.1102005888206695E-7   -0.016975563776201085    0.016971270992907364     -0.0169745591533784      -0.01697227561573003     0.01697227561573003      0.016974559153378387     -0.016971270992907364    0.016975563776201085
0.16000502099967875       -0.008525339913138072    -1.6211123760245864E-7   -5.173262942950935E-7    -0.017053235465166145    0.01704812418738616      -0.0170522627977405      -0.01704909685481179     0.01704909685481179      0.01705226279774049      -0.01704812418738616     0.017053235465166145
0.16308724463401028       -0.008687791269252294    -1.2007640624289695E-7   -3.881303933040626E-7    -0.017377495289296552    0.017373669787712657     -0.01737677483085906     -0.017374390246150125    0.017374390246150125     0.017376774830859053     -0.017373669787712657    0.017377495289296552
0.16616473220487338       -0.0088499930069013      -7.810616449557871E-8    -2.591330113239817E-7    -0.017701256864341396    0.017698715163263823     -0.017700788227354387    -0.01769918380025081     0.01769918380025081      0.01770078822735438      -0.017698715163263823    0.017701256864341396
0.16751877674246374       -0.008921046583507551    -8.931108380958288E-8    -2.176568990353032E-7    -0.017843231727862688    0.017840954606167542     -0.017842695861359798    -0.01784149047267041     0.01784149047267041      0.01784269586135979      -0.017840954606167542    0.017843231727862688