% Model:              Cylinder_slice_potential_1.mph
% Version:            COMSOL 6.2.0.415
% Date:               May 17 2024, 18:28
% Dimension:          1
% Nodes:              848
% Expressions:        11
% Description:        Line graph
% Arc length (m)          Magnetic scalar potential Magnetic scalar potential Magnetic scalar potential Magnetic scalar potential Magnetic scalar potential Magnetic scalar potential Magnetic scalar potential Magnetic scalar potential Magnetic scalar potential Magnetic scalar potential Magnetic scalar potential
0                         -0.002369539664201236    1.355128015209637E-6     2.706731794163085E-7     -0.004733931251639175    0.004744227405165761     -0.004742062019730442    -0.004736096637074501    0.004736096637074501     0.004742062019730442     -0.004744227405165761    0.004733931251639175
7.492642564828734E-4      -0.0023765010226029235   3.7348330504642796E-6    1.2349171505230962E-6    -0.004736857877452358    0.0047691462129593265    -0.004759266875755153    -0.00474673721465654     0.00474673721465654      0.004759266875755153     -0.0047691462129593265   0.004736857877452358
0.002842714828513436      -0.0023959511159471992   1.0383748735703138E-5    3.9290228354333005E-6    -0.004745034894345555    0.004838769569443238     -0.0048073373867597805   -0.004776467077029016    0.004776467077029016     0.0048073373867597805    -0.004838769569443238    0.004745034894345555
0.003618076360188525      -0.00240308531802851     1.2766610028594213E-5    4.914645794027152E-6     -0.004748212222795127    0.0048641290493189075    -0.004824811882966699    -0.00478752938914734     0.00478752938914734      0.004824811882966699     -0.0048641290493189075   0.004748212222795127
0.008578029290098495      -0.002449098457974312    3.394978864811453E-5     1.196457091149268E-5     -0.0047484892663583085   0.005047904565538935     -0.004952187998247003    -0.004844205833650247    0.004844205833650247     0.004952187998247003     -0.005047904565538935    0.0047484892663583085
0.011078632288650036      -0.0024726202534485495   4.351622017913191E-5     1.5536300442214667E-5    -0.004752546644590844    0.0051379343692033504    -0.005013643965665643    -0.004876837048128559    0.004876837048128559     0.005013643965665643     -0.0051379343692033504   0.004752546644590844
0.013208135675974583      -0.0024926513192224282   5.166295453149015E-5     1.857797084678721E-5     -0.004756001891463238    0.005214603385426474     -0.005065979618652185    -0.004904625658237532    0.004904625658237532     0.005065979618652185     -0.005214603385426474    0.004756001891463238
0.014199746768347505      -0.0025023759787872408   5.4491843894781804E-5    1.9976386795894216E-5    -0.004761370878706559    0.0052481330364424015    -0.005088321942075256    -0.00492118197307371     0.00492118197307371      0.005088321942075256     -0.0052481330364424015   0.004761370878706559
0.019085524303987852      -0.002550660798876076    7.428138285451257E-5     2.7600335669874237E-5    -0.004768076106509119    0.005434567088995186     -0.005213764403636201    -0.004988878791868109    0.004988878791868109     0.005213764403636201     -0.005434567088995186    0.004768076106509119
0.01922534997675686       -0.0025520523909792147   7.491724640158971E-5     2.7808038722859343E-5    -0.004768120887862224    0.005440088676054633     -0.005217624366271769    -0.004990585197645094    0.004990585197645094     0.005217624366271769     -0.005440088676054633    0.004768120887862224
0.019343812590922986      -0.0025532313707411283   7.545596047710965E-5     2.7984008172100253E-5    -0.004768158827362528    0.005444766655601985     -0.005220894590225192    -0.004992030892739327    0.004992030892739327     0.005220894590225192     -0.005444766655601985    0.004768158827362528
0.02478141717650649       -0.0026063162657288114   1.0090067210890561E-4    3.609025015389524E-5     -0.004765569514515327    0.0056596955483999185    -0.005370973547168768    -0.005054291515746484    0.005054291515746484     0.005370973547168768     -0.0056596955483999185   0.004765569514515327
0.027154567416122058      -0.0026309045233909065   1.1240262012838008E-4    3.994640762126931E-5     -0.004764815555911597    0.005758802537652029     -0.005439231276681885    -0.005084386816881748    0.005084386816881748     0.005439231276681885     -0.005758802537652029    0.004764815555911597
0.0313352768809425        -0.002674220938767969    1.3266526601829186E-4    4.673968760522023E-5     -0.004763487329060182    0.005933396426011692     -0.00555947892516994     -0.005137404829901941    0.005137404829901941     0.00555947892516994      -0.005933396426011692    0.004763487329060182
0.0331343449325866        -0.002692389911779236    1.411690616906404E-4     4.965876188661082E-5     -0.004762637590940109    0.0060069220561768345    -0.005609651961083957    -0.005159907686032993    0.005159907686032993     0.005609651961083957     -0.0060069220561768345   0.004762637590940109
0.034335164037076364      -0.0027049831317363226   1.4764629238824602E-4    5.167359228260425E-5     -0.004760333017177491    0.006059599509767796     -0.005646210771506973    -0.005173721755438322    0.005173721755438322     0.005646210771506973     -0.006059599509767796    0.004760333017177491
0.03536308758466547       -0.002715334600183242    1.5370133758473812E-4    5.329793634268179E-5     -0.004756373442241543    0.006104964958491422     -0.005678581467749979    -0.005182756932982996    0.005182756932982996     0.005678581467749979     -0.006104964958491422    0.004756373442241543
0.03772355506158011       -0.0027413666872187986   1.6720225228287366E-4    5.724526783551302E-5     -0.004752145546246925    0.006213321202628267     -0.005755359059944174    -0.005210107688931027    0.005210107688931027     0.005755359059944174     -0.006213321202628267    0.004752145546246925
0.04224380013886427       -0.0027903958591256103   1.925984243892061E-4     6.480800336702433E-5     -0.0047437644316155065   0.0064178190048869346    -0.005899354977950751    -0.005262228458551699    0.005262228458551699     0.005899354977950751     -0.0064178190048869346   0.0047437644316155065
0.0454564910581506        -0.002823717330146253    2.1168488640363112E-4    7.071127326168531E-5     -0.004729534908034872    0.006565334412550138     -0.005999644226456665    -0.0052952250941283524   0.0052952250941283524    0.005999644226456665     -0.006565334412550138    0.004729534908034872
0.04713869455267339       -0.002841164851990656    2.216787868146532E-4     7.380229617531062E-5     -0.004722084158836111    0.006642575249126512     -0.006052156879724036    -0.0053125025282385946   0.0053125025282385946    0.006052156879724036     -0.006642575249126512    0.004722084158836111
0.04797641502767186       -0.002850689444990385    2.2651799962465155E-4    7.536786022215819E-5     -0.004720353450218182    0.006682404329743355     -0.006079461447966099    -0.005323296331995446    0.005323296331995446     0.006079461447966099     -0.006682404329743355    0.004720353450218182
0.05289708435170482       -0.0029069871596531186   2.6011609052238154E-4    8.408042295910378E-5     -0.004697304355902677    0.006930644282709795     -0.006258000899036974    -0.005369947739575507    0.005369947739575507     0.006258000899036974     -0.006930644282709795    0.004697304355902677
0.053689122687130025      -0.0029159329682020697   2.6548077467200565E-4    8.549581417536652E-5     -0.0046934403556866565   0.0069702915171216216    -0.006286325003718698    -0.005377406869089587    0.005377406869089587     0.006286325003718698     -0.0069702915171216216   0.0046934403556866565
0.054249118167814275      -0.0029222579301823376   2.6927377148127626E-4    8.649653932850168E-5     -0.004690708388606839    0.006998323332122509     -0.006306351017494505    -0.005382680703234852    0.005382680703234852     0.006306351017494505     -0.006998323332122509    0.004690708388606839
0.05993573649428868       -0.0029827755445010888   3.0816212730602245E-4    9.777076396634073E-5     -0.004649981651218747    0.007281120526785607     -0.006498954415054889    -0.005432147762949471    0.005432147762949471     0.006498954415054889     -0.007281120526785607    0.004649981651218747
0.06113403343885997       -0.0029956135259139394   3.17616547334602E-4      1.0002878149721335E-4    -0.004638262283835217    0.007344191819820536     -0.006543961567842838    -0.005438492535812923    0.005438492535812923     0.006543961567842838     -0.007344191819820536    0.004638262283835217
0.07126931096690808       -0.0031116259157333067   4.0124802894974906E-4    1.2115056828666099E-4    -0.004534905471470723    0.007911598191462504     -0.006942393645169224    -0.005504110017764009    0.005504110017764009     0.006942393645169224     -0.007911598191462504    0.004534905471470723
0.0748172447609236        -0.00315404939149957     4.302971689526283E-4     1.2800392572432555E-4    -0.004505191573243953    0.008111005992754326     -0.0070869745869597284   -0.0055292229790385545   0.0055292229790385545    0.0070869745869597284    -0.008111005992754326    0.004505191573243953
0.07613067170973468       -0.0031697543453032833   4.4105101204404244E-4    1.305410036043149E-4     -0.004494191640057179    0.00818482574115595      -0.0071404977123214405   -0.005538519668891697    0.005538519668891697     0.0071404977123214405    -0.00818482574115595     0.004494191640057179
0.07637091889368783       -0.00317238840107097     4.4305237737949103E-4    1.31005991806265E-4      -0.004491595702778407    0.008197957901505471     -0.00714990996705536     -0.005539643637228525    0.005539643637228525     0.00714990996705536      -0.008197957901505471    0.004491595702778407
0.07689100695866238       -0.003178576063738807    4.4824958255720014E-4    1.3208129128376714E-4    -0.004484078214670945    0.008230226040284281     -0.007173575710014152    -0.005540728544941079    0.005540728544941079     0.007173575710014152     -0.008230226040284281    0.004484078214670945
0.07699909348284018       -0.0031799117423712765   4.4924794084576843E-4    1.3230858765304063E-4    -0.004482845311593084    0.008236801657892017     -0.007178332956667702    -0.005541314012817408    0.005541314012817408     0.007178332956667702     -0.008236801657892017    0.004482845311593084
0.07863698211177064       -0.003200151942161844    4.643765584128804E-4     1.3575292210141112E-4    -0.004464162520679401    0.008336445247967972     -0.007250421871156689    -0.0055501858974906886   0.0055501858974906886    0.007250421871156689     -0.008336445247967972    0.004464162520679401
0.08088838366998286       -0.0032261318924018565   4.8596449365244127E-4    1.405666311243459E-4     -0.004432103779349007    0.00847242379025842      -0.00734789074126366     -0.005556636828343772    0.005556636828343772     0.00734789074126366      -0.00847242379025842     0.004432103779349007
0.08701441572118443       -0.0032988375479123377   5.451196165598938E-4     1.541264463944656E-4     -0.004345810460567133    0.008849539731082219     -0.007616528159926504    -0.005578822031722856    0.005578822031722856     0.007616528159926504     -0.008849539731082219    0.004345810460567133
0.08900946830655779       -0.003321857838955781    5.676224137313034E-4     1.584612519963906E-4     -0.00430700342873209     0.008980427927091033     -0.007712737911119919    -0.005574693444703212    0.005574693444703212     0.007712737911119919     -0.008980427927091033    0.00430700342873209
0.08918162184464883       -0.0033241933517548714   5.694019114517853E-4     1.588461423065249E-4     -0.004304796399928287    0.008991977007091197     -0.007721207868639007    -0.005575565538380484    0.005575565538380484     0.007721207868639007     -0.008991977007091197    0.004304796399928287
0.08997752500238738       -0.0033349909341475826   5.776289155007595E-4     1.6062557371766958E-4    -0.004294592826922208    0.009045370909668123     -0.007760366319926774    -0.0055795974166635625   0.0055795974166635625    0.007760366319926774     -0.009045370909668123    0.004294592826922208
0.09251926928602269       -0.0033655565231764956   6.05217315502519E-4      1.6649844029127713E-4    -0.004249467338680326    0.009212758754025656     -0.00788077123169545     -0.005581454861010541    0.005581454861010541     0.00788077123169545      -0.009212758754025656    0.004249467338680326
0.09753303558811113       -0.003425849260437014    6.596373416034626E-4     1.7808307558011947E-4    -0.0041604541937431605   0.009542942848004892     -0.008118278243363945    -0.005585118798384116    0.005585118798384116     0.008118278243363945     -0.009542942848004892    0.0041604541937431605
0.09778922138755236       -0.0034292760442397206   6.627013223656157E-4     1.786898728050233E-4     -0.0041556886301625      0.009561415546796381     -0.008131896564356204    -0.005585207612602684    0.005585207612602684     0.008131896564356204     -0.009561415546796381    0.0041556886301625
0.09839824570817529       -0.0034361318057705556   6.696965499699729E-4     1.8008697031360085E-4    -0.004142826080376787    0.009601701142705431     -0.008161005380196634    -0.005583521842885593    0.005583521842885593     0.008161005380196634     -0.009601701142705431    0.004142826080376787
0.09906666633479186       -0.0034436561890557552   6.773740010344034E-4     1.816203225304266E-4     -0.004128709084886592    0.009645915671336425     -0.008192953091093021    -0.005581671665130003    0.005581671665130003     0.008192953091093021     -0.009645915671336425    0.004128709084886592
0.10279234552157446       -0.0034883689360259624   7.202182793353557E-4     1.9036971100762367E-4    -0.00405460419001536     0.009898871554088483     -0.008375913866027505    -0.005577561878076349    0.005577561878076349     0.008375913866027505     -0.009898871554088483    0.00405460419001536
0.105921122826643         -0.003527833724289135    7.610359613670466E-4     1.980298949565833E-4     -0.0039804399846507955   0.010130894912505739     -0.008546655752853084    -0.005564679144303461    0.005564679144303461     0.008546655752853084     -0.010130894912505739    0.0039804399846507955
0.1073653410254432        -0.00354605035010304     7.798770719591984E-4     2.0156577366783692E-4    -0.003946206389657136    0.010237995010755018     -0.008625468821412335    -0.005558732578999831    0.005558732578999831     0.008625468821412335     -0.010237995010755018    0.003946206389657136
0.10762786010450212       -0.003549032783050958    7.832065391813084E-4     2.022063719925291E-4     -0.003939620460587872    0.010256510671615954     -0.008638859695675731    -0.005557271436528104    0.005557271436528104     0.008638859695675731     -0.010256510671615954    0.003939620460587872
0.1084271144644853        -0.003558699421865692    7.941395654493554E-4     2.0420409326419247E-4    -0.003918163774326545    0.010316633913136215     -0.008683001167022687    -0.005551796520440085    0.005551796520440085     0.008683001167022687     -0.010316633913136215    0.003918163774326545
0.11048924823130521       -0.003583184008250655    8.223380988521817E-4     2.092571526068589E-4     -0.0038623251095173273   0.010470410923485288     -0.008796353702630428    -0.005536382330372198    0.005536382330372198     0.008796353702630428     -0.010470410923485288    0.0038623251095173273
0.11195289367706002       -0.003601047049134811    8.418733614098347E-4     2.1286824693727267E-4    -0.0038250010262910255   0.010579187170248213     -0.008876241194750042    -0.005527947001789206    0.005527947001789206     0.008876241194750042     -0.010579187170248213    0.0038250010262910255
0.11365905094058174       -0.0036218698221919636   8.646454270109779E-4     2.1707766448369228E-4    -0.003781492705416223    0.010705986583351628     -0.008969365267482099    -0.005518114021285761    0.005518114021285761     0.008969365267482099     -0.010705986583351628    0.003781492705416223
0.1142284081579077        -0.003628660298900317    8.728770009799348E-4     2.1841789184928262E-4    -0.0037650180274636973   0.010749623168137564     -0.009002280033343316    -0.005512361162257957    0.005512361162257957     0.009002280033343316     -0.010749623168137564    0.0037650180274636973
0.11435523038412901       -0.0036302916073233512   8.747388428474135E-4     2.1873183186010064E-4    -0.0037614393586640578   0.010759727070629343     -0.009009872415748547    -0.005511294013544861    0.005511294013544861     0.009009872415748547     -0.010759727070629343    0.0037614393586640578
0.11556788782197938       -0.003645889963790999    8.925415297735986E-4     2.217336849303426E-4     -0.00372722059853983     0.01085633925662416      -0.009082469777181431    -0.005501090077982569    0.005501090077982569     0.009082469777181431     -0.01085633925662416     0.00372722059853983
0.11567134820177075       -0.003647166366727542    8.940003113189302E-4     2.219878585990118E-4     -0.003724380365102243    0.010864285101807916     -0.009088382233015835    -0.005500283233894336    0.005500283233894336     0.009088382233015835     -0.010864285101807916    0.003724380365102243
0.11576335856122309       -0.0036482024318962455   8.953712662890415E-4     2.2221972099730966E-4    -0.0037214121809361267   0.010871397546648853     -0.009093639778670387    -0.005499169948914603    0.005499169948914603     0.009093639778670387     -0.010871397546648853    0.0037214121809361267
0.11668126109489224       -0.003658998260035391    9.081093761941472E-4     2.2456513711837425E-4    -0.0036954078430148423   0.010940585197126717     -0.009144064100179736    -0.005491928939961836    0.005491928939961836     0.009144064100179736     -0.010940585197126717    0.0036954078430148423
0.12068188439574942       -0.0037060512313708887   9.636276664548149E-4     2.3478749302214308E-4    -0.0035820694912887586   0.011242135434194793     -0.00936383549001766     -0.0054603694354659026   0.0054603694354659026    0.00936383549001766      -0.011242135434194793    0.0035820694912887586
0.12245705853975691       -0.003725788048529843    9.88678968961129E-4      2.3930850584901343E-4    -0.003528305166780244    0.011374847027339128     -0.00946037898054703     -0.0054427732135723505   0.0054427732135723505    0.00946037898054703      -0.011374847027339128    0.003528305166780244
0.1231699918326872        -0.0037357434664996823   9.997087959457821E-4     2.4123237849046146E-4    -0.003507431031200171    0.011435542834798557     -0.009505683806874875    -0.005437290059123862    0.005437290059123862     0.009505683806874875     -0.011435542834798557    0.003507431031200171
0.12486602645148923       -0.0037592558961652743   0.001028415708544993     2.457695115918435E-4     -0.003450186620328194    0.011586836964332901     -0.009620680871598165    -0.005416342713062941    0.005416342713062941     0.009620680871598165     -0.011586836964332901    0.003450186620328194
0.12663048281167869       -0.003777177844821788    0.0010559545099907393    2.5032328731139613E-4    -0.00338519901042577     0.011723512368861377     -0.009720926070370221    -0.005387785308916938    0.005387785308916938     0.009720926070370221     -0.011723512368861377    0.00338519901042577
0.1292427688777431        -0.0038037113753802343   0.0010967258370215274    2.570651740072462E-4     -0.0032889845436668975   0.011925860957854032     -0.009869339565796076    -0.005345505935724867    0.005345505935724867     0.009869339565796076     -0.011925860957854032    0.0032889845436668975
0.13268093272479264       -0.003846830075530356    0.0011562066907821083    2.664535309475827E-4     -0.0031592259549240555   0.012228094347197366     -0.010096466099616716    -0.0052908542025047155   0.0052908542025047155    0.010096466099616716     -0.012228094347197366    0.0031592259549240555
0.13366283443380253       -0.0038574728036694034   0.0011751958959548196    2.690912606822936E-4     -0.003112992876745172    0.012316898337932437     -0.010164168252474102    -0.00526572296220352     0.00526572296220352      0.010164168252474102     -0.012316898337932437    0.003112992876745172
0.13409381792770106       -0.0038621441878984863   0.0011835307770499378    2.702490323478222E-4     -0.0030926999152558693   0.012355876836338073     -0.010193884577555507    -0.005254692174038446    0.005254692174038446     0.010193884577555507     -0.012355876836338073    0.0030926999152558693
0.1350411768069085        -0.0038717074832091544   0.0012004623878842174    2.7270181736114283E-4    -0.0030512205333210842   0.012435609399515532     -0.0102539948606264      -0.005232835072210226    0.005232835072210226     0.0102539948606264       -0.012435609399515532    0.0030512205333210842
0.13645598879512028       -0.0038894407524383426   0.0012254917109831818    2.763872776181212E-4     -0.0029968572614546543   0.012560905748298715     -0.010349807527353757    -0.005207955482399622    0.005207955482399622     0.010349807527353757     -0.012560905748298715    0.0029968572614546543
0.13808166341232983       -0.003909816976209583    0.0012542513875953042    2.8062201639784924E-4    -0.002934391724041854    0.012704876180796475     -0.010459900049613691    -0.005179367855224646    0.005179367855224646     0.010459900049613691     -0.012704876180796475    0.002934391724041854
0.1414042429023582        -0.003946545374883441    0.0013205413898522043    2.895376910792282E-4     -0.002773315815893354    0.013012865683640405     -0.010696564155006591    -0.005089617344527178    0.005089617344527178     0.010696564155006591     -0.013012865683640405    0.002773315815893354
0.1443995938158352        -0.0039787958136376644   0.0013792202134592585    2.980485452802018E-4     -0.0026277368057767425   0.01328744644877391      -0.010903058086532306    -0.005012125168018357    0.005012125168018357     0.010903058086532306     -0.01328744644877391     0.0026277368057767425
0.14781532077573473       -0.004011395626815358    0.0014429546329402247    3.0794889651215005E-4    -0.0024621317687614393   0.013583450738499989     -0.0111198595664028      -0.004925722940858639    0.004925722940858639     0.0111198595664028       -0.013583450738499989    0.0024621317687614393
0.14831398434546514       -0.004016154888724341    0.0014522592505241813    3.093942533995324E-4     -0.0024379550122780058   0.013626664542619352     -0.011151510515423105    -0.004913109039474264    0.004913109039474264     0.011151510515423105     -0.013626664542619352    0.0024379550122780058
0.14944672883435325       -0.0040301194156899395   0.0014766318932976014    3.1263994493582563E-4    -0.002379783371743771    0.013740694291015985     -0.011239574731529391    -0.004880902931230375    0.004880902931230375     0.011239574731529391     -0.013740694291015985    0.002379783371743771
0.1501247362040224        -0.004038121722140826    0.0014909780505259005    3.1461359232016437E-4    -0.0023448549234232918   0.013807631965140009     -0.011290723226578706    -0.004861763661984605    0.004861763661984605     0.011290723226578706     -0.013807631965140009    0.0023448549234232918
0.15101669938140666       -0.00404903313516193     0.0015091149509668333    3.1712538319834287E-4    -0.0023022198846299868   0.013893912656017731     -0.011356909590431       -0.004839222950216729    0.004839222950216729     0.011356909590431        -0.013893912656017731    0.0023022198846299868
0.152504281903888         -0.004065756088061546    0.00153984748575636      3.215247076029368E-4     -0.0022258708884422625   0.014037153463803919     -0.011464955802980436    -0.004798068549265755    0.004798068549265755     0.011464955802980436     -0.014037153463803919    0.0022258708884422625
0.15474983891914412       -0.004090999961011122    0.001586239304731288     3.281656392015714E-4     -0.0021106194510220923   0.014253380393022392     -0.011628055279409834    -0.004735944564634662    0.004735944564634662     0.011628055279409834     -0.014253380393022392    0.0021106194510220923
0.1566071498014316        -0.004104896179142601    0.0016284477010086438    3.335593355785137E-4     -0.001990211912945213    0.01442937280362519      -0.011760898118997092    -0.004658686597573321    0.004658686597573321     0.011760898118997092     -0.01442937280362519     0.001990211912945213
0.1570976809897811        -0.004108894332679643    0.0016384695894113327    3.3491703095209E-4       -0.001962711773316925    0.014472865557401644     -0.011793529309784936    -0.004642048020933644    0.004642048020933644     0.011793529309784936     -0.014472865557401644    0.001962711773316925
0.1585431245077243        -0.004120675653115768    0.001668000991233013     3.3891773880449067E-4    -0.001881677377314531    0.014601025235148536     -0.011889683324712623    -0.004593019287750455    0.004593019287750455     0.011889683324712623     -0.014601025235148536    0.001881677377314531
0.16060446145843219       -0.00414070421643969     0.0017159443261667328    3.4523246930593553E-4    -0.0017526455771554375   0.014810171288603319     -0.012048311534155847    -0.004514505331602921    0.004514505331602921     0.012048311534155847     -0.014810171288603319    0.0017526455771554375
0.16125960337912137       -0.004145793075704224    0.0017298693512432309    3.4722965855848737E-4    -0.0017130594634448039   0.01487011283937209      -0.012092275570904202    -0.004490896731912702    0.004490896731912702     0.012092275570904202     -0.01487011283937209     0.0017130594634448039
0.16373485102152727       -0.004165019729501349    0.001782480677739916     3.547754098418378E-4     -0.001563495786415596    0.0150965831315898       -0.012258379852855102    -0.004401699065150299    0.004401699065150299     0.012258379852855102     -0.0150965831315898      0.001563495786415596
0.1661716330365359        -0.0041836893971920475   0.001841953580744713     3.6188256941304303E-4    -0.0013939877744977823   0.015340769814270412     -0.01244570925896607     -0.004289048329802127    0.004289048329802127     0.01244570925896607      -0.015340769814270412    0.0013939877744977823
0.16695160308246315       -0.00418886584549793     0.0018612272306935869    3.6402265034845497E-4    -0.0013379593975212769   0.015417503984470445     -0.01250532278168281     -0.004250140600308917    0.004250140600308917     0.01250532278168281      -0.015417503984470445    0.0013379593975212769
0.16954518938861238       -0.0042060787699053845   0.0019253167105882686    3.711389295403515E-4     -0.0011516516898845521   0.015672663389736986     -0.012703551953414178    -0.0041207631262073635   0.0041207631262073635    0.012703551953414178     -0.015672663389736986    0.0011516516898845521
0.17054142686838103       -0.004211586623372924    0.0019488789566394166    3.7409949132431866E-4    -0.0010801384115303211   0.01576620808196138      -0.012773412151366834    -0.00407293434212487     0.00407293434212487      0.012773412151366834     -0.01576620808196138     0.0010801384115303211
0.17123596499495075       -0.004215426485159347    0.001965305640600292     3.7616348015909705E-4    -0.001030282127881428    0.01583142381275596      -0.012822115971483191    -0.0040395899691542045   0.0040395899691542045    0.012822115971483191     -0.01583142381275596     0.001030282127881428
0.17265727528609723       -0.004228043402283024    0.0020000720279238792    3.8060599299829476E-4    -9.334467488012284E-4    0.015978726860330868     -0.012933878916344517    -0.003978294692787586    0.003978294692787586     0.012933878916344517     -0.015978726860330868    9.334467488012284E-4
0.17436420606893682       -0.004237869548543568    0.00204393065332281      3.85751006928622E-4      -8.009431094042148E-4    0.016150535084770056     -0.01306452702934109     -0.00388695116483319     0.00388695116483319      0.01306452702934109      -0.016150535084770056    8.009431094042148E-4
0.17609116541400852       -0.004247810991560054    0.0020883039013514567    3.909563907536887E-4     -6.668847160509795E-4    0.016324359250189234     -0.013196708124159736    -0.0037945358420804886   0.0037945358420804886    0.013196708124159736     -0.016324359250189234    6.668847160509795E-4
0.17853431634093325       -0.0042658684572560324   0.002155584827110183     3.9864120881257013E-4    -4.7041759793123035E-4   0.016593056231092897     -0.013403926560592347    -0.0036595472684317907   0.0036595472684317907    0.013403926560592347     -0.016593056231092897    4.7041759793123035E-4
0.17958145594254302       -0.004273607924853626    0.002184421572731792     4.019349379194941E-4     -3.862113798338971E-4    0.016708220319580608     -0.013492740816224664    -0.003601690883189849    0.003601690883189849     0.013492740816224664     -0.016708220319580608    3.862113798338971E-4
0.180699185315921         -0.0042783695189741976   0.0022107324170823565    4.053182467283111E-4     -3.0326879978807635E-4   0.01681020927610871      -0.013567663302282231    -0.0035458147736145643   0.0035458147736145643    0.013567663302282231     -0.01681020927610871     3.0326879978807635E-4
0.1829030146359731        -0.00428286591182355     0.0022695559567087863    4.119227970313762E-4     -1.0937276539523306E-4   0.017022090881898964     -0.013726708505647965    -0.0034047551416462414   0.0034047551416462414    0.013726708505647965     -0.017022090881898964    1.0937276539523306E-4
0.18553588928818007       -0.004292540944463357    0.002344686782929705     4.2015873313445143E-4    1.2961339240020678E-4    0.017299777170253636     -0.013938507305178035    -0.0032316564726754034   0.0032316564726754034    0.013938507305178035     -0.017299777170253636    -1.2961339240020678E-4
0.18629787648928953       -0.004296112027570218    0.002366421207039164     4.2253520804189055E-4    1.971803981446218E-4     0.017381628508425492     -0.014001346844090379    -0.003183101266190501    0.003183101266190501     0.014001346844090379     -0.017381628508425492    -1.971803981446218E-4