% Model:              Cylinder_slice_potential_4.mph
% Version:            COMSOL 6.2.0.415
% Date:               May 17 2024, 21:56
% Dimension:          1
% Nodes:              772
% Expressions:        11
% Description:        Line graph
% Arc length (m)          Magnetic scalar potential Magnetic scalar potential Magnetic scalar potential Magnetic scalar potential Magnetic scalar potential Magnetic scalar potential Magnetic scalar potential Magnetic scalar potential Magnetic scalar potential Magnetic scalar potential Magnetic scalar potential
0                         -2.7163301838595416E-7   -1.1237799156789776E-7   -1.243931768097447E-7    -1.3779727187209975E-6   -2.9144064515511315E-7   -7.037047692711915E-7    -3.828273042709988E-7    3.828273042709988E-7     7.037047692634124E-7     2.9144064515511315E-7    1.3779727187209975E-6
4.8759208208227724E-4     2.0720563989457344E-5    -1.130721226061871E-5    2.0855141216999726E-5    9.0940056065051E-5       8.057800107243813E-6     1.587833296288056E-4     -7.590107367097477E-5    7.590107367097477E-5     -1.587833296288134E-4    -8.057800107243813E-6    -9.0940056065051E-5
0.0020280424198415646     8.703336022590514E-5     -4.667666492187234E-5    8.71354021303155E-5      3.825783342074492E-4     3.444489330385039E-5     6.626383237387257E-4     -3.14504882835104E-4     3.14504882835104E-4      -6.626383237387336E-4    -3.444489330385039E-5    -3.825783342074492E-4
0.00473955606167545       2.037767391239368E-4     -1.0893702887684458E-4   2.038140323228616E-4     8.959985209087806E-4     8.089156441305387E-5     0.0015496206941698909    -7.345137376741423E-4    7.345137376741423E-4     -0.001549620694169899    -8.089156441305387E-5    -8.959985209087806E-4
0.005426288109111272      2.3334377444263017E-4    -1.2470541246645476E-4   2.3336466904764748E-4    0.0010260299876764804    9.265488990598003E-5     0.0017742624624752516    -8.408873647047298E-4    8.408873647047298E-4     -0.0017742624624752599   -9.265488990598003E-5    -0.0010260299876764804
0.007228295154970953      3.1092327763471183E-4    -1.660835094670189E-4    3.109062072096187E-4     0.0013672208557068367    1.2352774516800902E-4    0.002363721912508993     -0.0011200288019701443   0.0011200288019701443    -0.002363721912509001    -1.2352774516800902E-4   -0.0013672208557068367
0.00789644186019622       3.396903113304709E-4     -1.8142228969936697E-4   3.396495777292835E-4     0.0014937120644799692    1.349508191581056E-4     0.002582245802676214     -0.0012234845573543293   0.0012234845573543293    -0.0025822458026762223   -1.349508191581056E-4    -0.0014937120644799692
0.010871476420494948      4.6778032325877435E-4    -2.497207650898534E-4    4.676342254222525E-4     0.002056935252936993     1.8581395990191615E-4    0.0035552598434761586    -0.0016841385504410594   0.0016841385504410594    -0.0035552598434761664   -1.8581395990191615E-4   -0.002056935252936993
0.011421327722746859      4.91454915196671E-4      -2.6234314574335614E-4   4.912913066063239E-4     0.002161045619588564     1.9522595880190022E-4    0.003735104494048745     -0.0017692848332620597   0.0017692848332620597    -0.0037351044940487532   -1.9522595880190022E-4   -0.002161045619588564
0.012950240828338391      5.572607110446964E-4     -2.9745017086710133E-4   5.570940878963444E-4     0.0024505472610734614    2.215044168946955E-4     0.004235248286276114     -0.002006205442097326    0.002006205442097326     -0.004235248286276123    -2.215044168946955E-4    -0.0024505472610734614
0.013339821249098705      5.740286029158453E-4     -3.063957476754446E-4    5.73861211631769E-4      0.002524314809332427     2.28200397669066E-4      0.00436268929538514      -0.002066574883721756    0.002066574883721756     -0.004362689295385148    -2.28200397669066E-4     -0.002524314809332427
0.019714910421148323      8.485212454043064E-4     -4.527880070442095E-4    8.481178260911281E-4     0.0037311497740404953    3.370647924232881E-4     0.0064478778163057976    -0.003053792834688567    0.003053792834688567     -0.006447877816305807    -3.370647924232881E-4    -0.0037311497740404953
0.020239062382768888      8.710863797884826E-4     -4.6482751941977245E-4   8.706819086438987E-4     0.003830417835893241     3.460723167393289E-4     0.006619382952411922     -0.0031350374332579853   0.0031350374332579853    -0.00661938295241193     -3.460723167393289E-4    -0.003830417835893241
0.02345097584010753       0.0010093753685362912    -5.386145688438936E-4    0.0010090137106637694    0.004438961873195977     4.0146039905082913E-4    0.007670649286259384     -0.0036331478121142124   0.0036331478121142124    -0.007670649286259393    -4.0146039905082913E-4   -0.004438961873195977
0.024136627421475022      0.001038891396171602     -5.543419882638085E-4    0.0010385254939431886    0.00456885880332453      4.1329321863814005E-4    0.007894910732907425     -0.0037393451482210125   0.0037393451482210125    -0.007894910732907436    -4.1329321863814005E-4   -0.00456885880332453
0.02545237833106214       0.0010955290567950513    -5.845549672576823E-4    0.0010951681243219912    0.004818065709105018     4.359494819248305E-4     0.008325395512651157     -0.003943279285470945    0.003943279285470945     -0.008325395512651166    -4.359494819248305E-4    -0.004818065709105018
0.027074141319119234      0.0011653519870954833    -6.21783716393268E-4     0.0011649743406332057    0.005125250187543981     4.638422391620675E-4     0.008855952485903635     -0.004194544537521696    0.004194544537521696     -0.008855952485903644    -4.638422391620675E-4    -0.005125250187543981
0.029056797042790926      0.0012507126923422644    -6.672970208048054E-4    0.0012503146125080141    0.005500792772302165     4.979420029331261E-4     0.009504574897131045     -0.0045017241277619776   0.0045017241277619776    -0.009504574897131052    -4.979420029331261E-4    -0.005500792772302165
0.03377840780668553       0.001454012732393251     -7.757312712288613E-4    0.001453642561670202     0.00639540189778072      5.793509682077356E-4     0.011049789525153932     -0.005233738595580922    0.005233738595580922     -0.011049789525153944    -5.793509682077356E-4    -0.00639540189778072
0.03677245069549947       0.0015829157552471795    -8.444797420726596E-4    0.0015825854385868926    0.006962734038623942     6.31071017635245E-4      0.012029612491059945     -0.0056979494700712206   0.0056979494700712206    -0.012029612491059955    -6.31071017635245E-4     -0.006962734038623942
0.04218730969337397       0.0018160425737578914    -9.688143924978312E-4    0.001815784334932946     0.007988779309754062     7.246090147225205E-4     0.013801665664741093     -0.006537495369709524    0.006537495369709524     -0.013801665664741107    -7.246090147225205E-4    -0.007988779309754062
0.04669226636283499       0.002010050252922024     -0.001072276260045526    0.0020097524975689184    0.008842281715983133     8.020807042950613E-4     0.015275939276256333     -0.007235738264568234    0.007235738264568234     -0.015275939276256346    -8.020807042950613E-4    -0.008842281715983133
0.055038400070782034      0.002369620837388736     -0.0012640533093277234   0.002369471474161059     0.010424967643438527     9.464842938836037E-4     0.018009287499404912     -0.008530804149849964    0.008530804149849964     -0.018009287499404926    -9.464842938836037E-4    -0.010424967643438527
0.05980847855119579       0.0025751267599120344    -0.0013736599377174902   0.0025750622074612924    0.01132952253651676      0.0010290154968686357    0.019571482162821747     -0.009270975123173599    0.009270975123173599     -0.019571482162821757    -0.0010290154968686357   -0.01132952253651676
0.062130527504259764      0.002675157212645458     -0.0014270093453192477   0.002675137633093543     0.011769836921707338     0.0010692080711255172    0.020331892993622872     -0.009631264143041027    0.009631264143041027     -0.02033189299362288     -0.0010692080711255172   -0.011769836921707338
0.06292941053678432       0.002709577686893304     -0.0014453688683741953   0.002709598792905936     0.011921443940287758     0.001083133192714553     0.020593657150532976     -0.009755346402959749    0.009755346402959749     -0.02059365715053299     -0.001083133192714553    -0.011921443940287758
0.06363889513103801       0.0027401410846411805    -0.00146166824413454     0.002740188636373106     0.012056031982371153     0.001095467643806445     0.020826041447178444     -0.00986547710861371     0.00986547710861371      -0.020826041447178454    -0.001095467643806445    -0.012056031982371153
0.0654871779834332        0.002819761987513291     -0.0015041298521336248   0.002819878433157623     0.012406648151256187     0.0011276002012030376    0.02143142726405799      -0.010152379314004813    0.010152379314004813     -0.021431427264058004    -0.0011276002012030376   -0.012406648151256187
0.06581832417998396       0.0028340304600237985    -0.0015117372315603948   0.002834159993211691     0.012469489198213167     0.0011333673581179844    0.021539912587575583     -0.010203790747480377    0.010203790747480377     -0.0215399125875756      -0.0011333673581179844   -0.012469489198213167
0.0690156781182295        0.0029717984828772073    -0.0015851896366408905   0.0029720543817289037    0.013076245582747349     0.001189051651238529     0.02258738340259274      -0.010700189471083896    0.010700189471083896     -0.02258738340259275     -0.001189051651238529    -0.013076245582747349
0.07171426424120458       0.0030880897412703303    -0.0016472003486640687   0.00308842930634611      0.013588295661932887     0.0012359366968515725    0.023471497753917353     -0.011119138788836011    0.011119138788836011     -0.023471497753917357    -0.0012359366968515725   -0.013588295661932887
0.07310053326778496       0.003147848502896372     -0.0016790716479912278   0.0031481958374684317    0.013851265411692784     0.0012598714001072994    0.023925695299640202     -0.011334301288054691    0.011334301288054691     -0.023925695299640205    -0.0012598714001072994   -0.013851265411692784
0.07648927628710422       0.0032939291570987907    -0.001756981231946923    0.0032942954842514957    0.014494096555362792     0.0013183799269676304    0.025035983947044378     -0.011860267318649196    0.011860267318649196     -0.025035983947044385    -0.0013183799269676304   -0.014494096555362792
0.07934532961872637       0.003417073473239323     -0.0018226820403275913   0.003417554594563695     0.01503631920375065      0.0013680253107933573    0.025972411445716242     -0.012304117552758932    0.012304117552758932     -0.025972411445716253    -0.0013680253107933573   -0.01503631920375065
0.07981983436037465       0.003437532671696422     -0.0018335975735781715   0.003438032864926128     0.01512640408236284      0.0013762733955771512    0.026127989523831913     -0.012377858837046209    0.012377858837046209     -0.026127989523831927    -0.0013762733955771512   -0.01512640408236284
0.08059208408210054       0.003470835751452377     -0.0018513647948584576   0.003471355220216395     0.01527299799919496      0.00138965499338545      0.02638118676834575      -0.012497843762536225    0.012497843762536225     -0.02638118676834576     -0.00138965499338545     -0.01527299799919496
0.08272079164409771       0.003562646482223328     -0.0019003308937349116   0.0035631830491457952    0.015677032479825107     0.00142644655093179      0.02707901784223462      -0.012828431913341286    0.012828431913341286     -0.02707901784223462     -0.00142644655093179     -0.015677032479825107
0.0846760859539848        0.0036469999302152795    -0.0019453199244487424   0.003647531273642196     0.01604816518165312      0.001460165460791995     0.027720084728345612     -0.013132085007484477    0.013132085007484477     -0.027720084728345615    -0.001460165460791995    -0.01604816518165312
0.0859426361255938        0.003701640233462614     -0.0019744617596614764   0.003702168193348161     0.016288567961333444     0.0014820070274829838    0.02813533851930234      -0.013328777585451868    0.013328777585451868     -0.028135338519302347    -0.0014820070274829838   -0.016288567961333444
0.09021050389640559       0.0038858662269539465    -0.0020726884160074156   0.003886288239382639     0.017098820163416194     0.0015553552556004141    0.02953495065946073      -0.013991485751644935    0.013991485751644935     -0.02953495065946074     -0.0015553552556004141   -0.017098820163416194
0.09057004332941676       0.0039013858314146314    -0.0020809591111852353   0.0039017977194254648    0.01716708520697541      0.0015615418813168863    0.029652839874086855     -0.014047296548428321    0.014047296548428321     -0.02965283987408687     -0.0015615418813168863   -0.01716708520697541
0.0911200821933637        0.003925128388760756     -0.0020936119758280898   0.003925524788002385     0.017271520002046774     0.0015710064470037537    0.02983319185701535      -0.014132678301972314    0.014132678301972314     -0.02983319185701536     -0.0015710064470037537   -0.017271520002046774
0.09164038109630174       0.003947589816424479     -0.002105596308498585    0.003947993360192953     0.017370364148125005     0.0015800048824270929    0.030003941999116546     -0.014213582733418623    0.014213582733418623     -0.03000394199911656     -0.0015800048824270929   -0.017370364148125005
0.09421482599552342       0.004058668025729849     -0.002164861169742288    0.004059039292057417     0.017858909710462494     0.0016242376075430976    0.03084807672891625      -0.014613404625996845    0.014613404625996845     -0.030848076728916256    -0.0016242376075430976   -0.017858909710462494
0.09563091455442574       0.004119832003990109     -0.002197455685209874    0.004120104922703463     0.01812771664316444      0.0016483886272040077    0.031312450754423723     -0.014833122738463274    0.014833122738463274     -0.031312450754423723    -0.0016483886272040077   -0.01812771664316444
0.09679404145650221       0.004170070012132534     -0.0022242277098563305   0.004170262151465865     0.018348505500559525     0.0016682254520293935    0.03169387175969754      -0.015013591711167399    0.015013591711167399     -0.031693871759697546    -0.0016682254520293935   -0.018348505500559525
0.10055997054850577       0.004332747608104287     -0.0023110220443885838   0.0043328359614599535    0.01906377292888265      0.0017327824964654917    0.03292990519521416      -0.015598914762797022    0.015598914762797022     -0.032929905195214174    -0.0017327824964654917   -0.01906377292888265
0.10242647585943804       0.004413331049193199     -0.0023540153998371483   0.004413318931537946     0.01941789162502676      0.0017645674282539482    0.03354198402404964      -0.015888659827276864    0.015888659827276864     -0.033541984024049655    -0.0017645674282539482   -0.01941789162502676
0.10248898906595211       0.004416030696491743     -0.0023554557490090356   0.004416014493273611     0.019429752119050844     0.0017656293330838592    0.033562486613105055     -0.0158983638271381      0.0158983638271381       -0.03356248661310506     -0.0017656293330838592   -0.019429752119050844
0.10254306267296831       0.0044183682081940755    -0.0023567026580904584   0.004418344703709367     0.019440007256954262     0.0017665344241779475    0.03358022320549701      -0.015906750372720727    0.015906750372720727     -0.033580223205497015    -0.0017665344241779475   -0.019440007256954262
0.10372067268406857       0.004469259964300625     -0.002383845956345336    0.004469072530163596     0.019663272180219647     0.0017862323230171317    0.033966347918291666     -0.016089308061089175    0.016089308061089175     -0.03396634791829167     -0.0017862323230171317   -0.019663272180219647
0.10431440732832184       0.004494918882297693     -0.0023975312310808685   0.0044946487971022605    0.01977583925976184      0.0017961637305710582    0.03416102664624705      -0.016181351117056295    0.016181351117056295     -0.03416102664624706     -0.0017961637305710582   -0.01977583925976184
0.10516769885551241       0.004531792446952199     -0.0024171917307805125   0.004531492002155238     0.01993797771018383      0.0018108079223750255    0.03444112809486691      -0.01631395830705813     0.01631395830705813      -0.034441128094866914    -0.0018108079223750255   -0.01993797771018383
0.10590879793303577       0.0045638178027417094    -0.0024342672292786954   0.004563490990083391     0.020078797877980913     0.0018235266670140675    0.03468440125365309      -0.016429130042686268    0.016429130042686268     -0.034684401253653095    -0.0018235266670140675   -0.020078797877980913
0.11103079716445971       0.0047853065655026495    -0.0025523624914229764   0.004784544906285617     0.021051705281878844     0.001910479019868245     0.03636588023041672      -0.017224653968406133    0.017224653968406133     -0.036365880230416724    -0.001910479019868245    -0.021051705281878844
0.1127465839205353        0.004859608161501728     -0.0025919894785024684   0.004858335684575072     0.021376590625796343     0.0019381579797894321    0.036928527496811164     -0.017490094850804272    0.017490094850804272     -0.03692852749681118     -0.0019381579797894321   -0.021376590625796343
0.1184734915139244        0.005107593957982788     -0.0027242055452811886   0.005105209943654467     0.022463411054739875     0.0020330352228087305    0.03880864432642704      -0.01837826849449589     0.01837826849449589      -0.038808644326427055    -0.0020330352228087305   -0.022463411054739875
0.11943291546907893       0.005149085941670729     -0.0027463239576615305   0.005146572389054634     0.022645489566575392     0.0020491457998924917    0.03912343331254461      -0.0185270895458617      0.0185270895458617       -0.03912343331254463     -0.0020491457998924917   -0.022645489566575392
0.11957260526296734       0.005155127073558515     -0.002749544344696844    0.005152594660482849     0.022671999754957876     0.0020514914607238314    0.039169265823138975     -0.018548757528904922    0.018548757528904922     -0.039169265823139       -0.0020514914607238314   -0.022671999754957876
0.12060495497727564       0.005199836908467871     -0.0027733842812499437   0.005196945407792583     0.02286730260435623      0.002067954970484765     0.03950760829185593      -0.018708260657984456    0.018708260657984456     -0.03950760829185595     -0.002067954970484765    -0.02286730260435623
0.12084326443604117       0.005210157806910586     -0.0027788875349422063   0.005207183413810061     0.02291238666423479      0.0020717554365924508    0.039585711873888055     -0.018745080646245717    0.018745080646245717     -0.03958571187388808     -0.0020717554365924508   -0.02291238666423479
0.1211787605127488        0.005224692025944097     -0.002786642234935441    0.00522160994265779      0.022975897117713025     0.002077129013936642     0.039695750527325706     -0.018796982423549317    0.018796982423549317     -0.03969575052732573     -0.002077129013936642    -0.022975897117713025
0.12348512164168354       0.005324807725747094     -0.002840044138861063    0.005320934932272163     0.023413222763999653     0.0021139918610112796    0.04045348759716606      -0.019154256694177682    0.019154256694177682     -0.040453487597166084    -0.0021139918610112796   -0.023413222763999653
0.12422097690808981       0.005356750106333439     -0.0028570822651747597   0.00535262503308792      0.023552753549494276     0.002125753124160529     0.04069524714054287      -0.019268246715209113    0.019268246715209113     -0.040695247140542894    -0.002125753124160529    -0.023552753549494276
0.1268573648990237        0.0054709972185177915    -0.0029180511558553677   0.0054661270645330025    0.024052349227601487     0.00216836035353033      0.04156065616273373      -0.01967666728866256     0.01967666728866256      -0.04156065616273375     -0.00216836035353033     -0.024052349227601487
0.1271909635940334        0.00548549911517747      -0.0029257841798209527   0.005480536258591419     0.024115790725257755     0.002173794264547887     0.041670495804183506     -0.019728499343473628    0.019728499343473628     -0.041670495804183534    -0.002173794264547887    -0.024115790725257755
0.12811441336147494       0.005525642476941668     -0.0029471903162641127   0.005520423006055691     0.024291406029313754     0.0021888361215470966    0.041974547926898476     -0.019871978019131802    0.019871978019131802     -0.041974547926898496    -0.0021888361215470966   -0.024291406029313754
0.13116737582502416       0.00565845853909441      -0.0030179655327742944   0.005651927761420068     0.024870731525546197     0.002236897369168576     0.042978524722192005     -0.020344690565814373    0.020344690565814373     -0.04297852472219202     -0.002236897369168576    -0.024870731525546197
0.13490949750690603       0.005821019764581719     -0.0031046486128497803   0.005812788616417516     0.025579248156284158     0.002295169097957292     0.04420713983338287      -0.020923060775056006    0.020923060775056006     -0.04420713983338289     -0.002295169097957292    -0.025579248156284158
0.13691569547980284       0.005908166899084416     -0.0031512022433033623   0.005898965631574767     0.025958589594557803     0.002325921998220156     0.04486580305437801      -0.021233135458040363    0.021233135458040363     -0.044865803054378026    -0.002325921998220156    -0.025958589594557803
0.13873489181639453       0.00598719087875819      -0.003193416518823695    0.005977109918624418     0.02630257187554296      0.0023538083605102113    0.045463070988485156     -0.021514307473452416    0.021514307473452416     -0.04546307098848518     -0.0023538083605102113   -0.02630257187554296
0.14055939369409168       0.006066845556662675     -0.003235862154673347    0.006055435014358185     0.026647844706738047     0.0023804624800873616    0.04606301763477816      -0.021795635408127477    0.021795635408127477     -0.04606301763477818     -0.0023804624800873616   -0.026647844706738047
0.14283264025328868       0.006166057994578079     -0.0032888038783590885   0.006152919461308754     0.02707738219931391      0.0024131502210016087    0.04681020546946847      -0.022145973491156164    0.022145973491156164     -0.046810205469468485    -0.0024131502210016087   -0.02707738219931391
0.145115276966929         0.006265680251705992     -0.0033419642897009913   0.006250806589617837     0.027508693992780355     0.002445972985956403     0.04756047973098634      -0.022497758724162376    0.022497758724162376     -0.04756047973098635     -0.002445972985956403    -0.027508693992780355
0.1496041272555063        0.006461420509772373     -0.003446369864212754    0.006442984626785985     0.028355669934050427     0.0025099878949609465    0.04903388911932699      -0.023188207080237496    0.023188207080237496     -0.049033889119327004    -0.0025099878949609465   -0.028355669934050427
0.15356084946537515       0.006634624871663824     -0.003538714167999645    0.006612191990201455     0.02910187520013454      0.0025633757134792485    0.05033416020813245      -0.02379566072147714     0.02379566072147714      -0.05033416020813247     -0.0025633757134792485   -0.02910187520013454
0.15794192975327798       0.006826327728582315     -0.003640877185712257    0.0067996187346385135    0.02992849883858192      0.0026231879242526656    0.051773761952855504     -0.024468451038526233    0.024468451038526233     -0.05177376195285553     -0.0026231879242526656   -0.02992849883858192
0.15886247323912045       0.006866613112507958     -0.0036623848765515916   0.0068389192235418185    0.03010174848952842      0.002635296039496596     0.052076057748838014     -0.024609605298806167    0.024609605298806167     -0.052076057748838035    -0.002635296039496596    -0.03010174848952842
0.16052496101127614       0.006939197875394518     -0.003701079781032868    0.006909764192333434     0.030414213177024176     0.0026574216754461106    0.052620691863221436     -0.02486390036164334     0.02486390036164334      -0.05262069186322145     -0.0026574216754461106   -0.030414213177024176
0.1616204259510805        0.006987137425492059     -0.0037266545949199417   0.00695605259603167      0.03061852145035098      0.0026699717483827552    0.052978449019870685     -0.025029899317902424    0.025029899317902424     -0.052978449019870706    -0.0026699717483827552   -0.03061852145035098
0.1623435486594254        0.0070189584439334565    -0.0037436321226303835   0.0069867922148940075    0.030754189379551794     0.002678355603817982     0.053215982115334154     -0.025140148339600307    0.025140148339600307     -0.05321598211533417     -0.002678355603817982    -0.030754189379551794
0.16432708859867934       0.00710626183078447      -0.0037901923705765325   0.0070711252778865455    0.031126447661385528     0.00270140033824766      0.053867601884844775     -0.025442554561706878    0.025442554561706878     -0.053867601884844796    -0.00270140033824766     -0.031126447661385528
0.16694867788242204       0.007221648276438366     -0.0038517297485987454   0.007182585929538256     0.031618451025233515     0.002731857919480065     0.05472882951682604      -0.02584223641107256     0.02584223641107256      -0.05472882951682606     -0.002731857919480065    -0.031618451025233515
0.17260966951131204       0.007470939134356663     -0.003984604068598307    0.00742322089352194      0.03268094963700616      0.0027971930995795177    0.05658857404859604      -0.026704817511169383    0.026704817511169383     -0.05658857404859607     -0.0027971930995795177   -0.03268094963700616
0.17325934183635086       0.007499634523790496     -0.003999881893510691    0.00745067013605937      0.03280230391128639      0.0028037658161244195    0.056801595272350576     -0.026803057177188592    0.026803057177188592     -0.056801595272350604    -0.0028037658161244195   -0.03280230391128639
0.17939863318894791       0.007771642674460223     -0.004144881014215417    0.007709341917143733     0.03394600997484913      0.0028594392770082445    0.05881529606014167      -0.027728725362300772    0.027728725362300772     -0.058815296060141686    -0.0028594392770082445   -0.03394600997484913
0.18023948829054873       0.00780882426765292      -0.0041647084883182205   0.007744777447953617     0.03410263286216565      0.0028673357915539785    0.059090883792075014     -0.027855586721463328    0.027855586721463328     -0.05909088379207503     -0.0028673357915539785   -0.03410263286216565
0.18633986110811024       0.00807857535793534      -0.0043085560832574355   0.008001860919906081     0.035238926145722715     0.0029246247139813487    0.061090262645267374     -0.028775961213525998    0.028775961213525998     -0.06109026264526739     -0.0029246247139813487   -0.035238926145722715
0.18635606117222614       0.008079291606258723     -0.004308938039212529    0.008002543666960071     0.03524194376272016      0.002924777337685266     0.061095571997995375     -0.028778405572960478    0.028778405572960478     -0.06109557199799539     -0.002924777337685266    -0.03524194376272016
0.18930491439743752       0.008210691296525317     -0.00437896833278102     0.00812593417880572      0.03578821430993045      0.002945449123829193     0.0620620243066166       -0.02921925912051534     0.02921925912051534      -0.06206202430661663     -0.002945449123829193    -0.03578821430993045
0.1897971829943911        0.008232626583305496     -0.0043906588822001874   0.008146532448541332     0.03587940631417576      0.0029488999809537822    0.06222335960737692      -0.029292853274154936    0.029292853274154936     -0.06222335960737694     -0.0029488999809537822   -0.03587940631417576
0.18994207466531776       0.008239046144662629     -0.004394088792510838    0.008152636460505205     0.03590637175381356      0.0029501871751630524    0.06227090450887862      -0.029314719930228106    0.029314719930228106     -0.06227090450887864     -0.0029501871751630524   -0.03590637175381356
0.19202048930119142       0.008331184041284188     -0.004443292463887861    0.008239484667978022     0.03629042936281687      0.002965693197680132     0.06295018414614408      -0.029625447981007334    0.029625447981007334     -0.0629501841461441      -0.002965693197680132    -0.03629042936281687
0.1924898046545834        0.008352046601476842     -0.004454445506933355    0.008259163550466537     0.03637741088401976      0.002969224478112397     0.06310408392561993      -0.02969589751971256     0.02969589751971256      -0.06310408392561995     -0.002969224478112397    -0.03637741088401976
0.1928749169391013        0.008369281303791023     -0.004463594758937982    0.008275363220932135     0.036449231214496634     0.0029721059993325465    0.06323079976812457      -0.029753674552960473    0.029753674552960473     -0.06323079976812457     -0.0029721059993325465   -0.036449231214496634
0.19547327079032573       0.008485636544493226     -0.004525397503170794    0.008383846985691413     0.036930468522239725     0.0029879223442668213    0.06408285354126451      -0.03014030736329161     0.03014030736329161      -0.06408285354126454     -0.0029879223442668213   -0.036930468522239725
0.19606551891850932       0.008512116983366763     -0.004539584289849057    0.008408259841365728     0.037038520462649285     0.0029900525291822228    0.06427602620174365      -0.03022755826827659     0.03022755826827659      -0.06427602620174366     -0.0029900525291822228   -0.037038520462649285
0.19862718172752136       0.008626149665655357     -0.004600409991957354    0.008514527026616044     0.037509177461902826     0.003004578799281406     0.06511163741364698      -0.030607038751025557    0.030607038751025557     -0.065111637413647       -0.003004578799281406    -0.037509177461902826