% Model:              Cylinder_slice_potential.mph
% Version:            COMSOL 6.2.0.339
% Date:               May 8 2024, 04:47
% Dimension:          1
% Nodes:              833
% Expressions:        11
% Description:        Line graph
% Arc length (m)          Magnetic scalar potential Magnetic scalar potential Magnetic scalar potential Magnetic scalar potential Magnetic scalar potential Magnetic scalar potential Magnetic scalar potential Magnetic scalar potential Magnetic scalar potential Magnetic scalar potential Magnetic scalar potential
0                         -0.0052225983689615256   -0.0048487583466960416   -1.6846776895138958E-7   -0.024992145649086996    -0.004101752173240897    0.004100404431089276     -0.02499079790693536     0.02499079790693536      -0.004100404431089276    0.004101752173240897     0.024992145649086996
0.0018715945759628983     -0.005235924943348645    -0.004899273687207212    -5.571881096712544E-7    -0.02517189970075763     -0.0042281999273630485   0.004223742422485669     -0.025167442195880234    0.025167442195880234     -0.004223742422485669    0.0042281999273630485    0.02517189970075763
0.004380701343452217      -0.005254245237115209    -0.0049737784422886205   -6.266710369157974E-7    -0.02543233248524396     -0.004415351536783128    0.004410338168487793     -0.025427319116948607    0.025427319116948607     -0.004410338168487793    0.004415351536783128     0.02543233248524396
0.005546774870384153      -0.005262526045863361    -0.005006991076058212    -4.168643247414113E-7    -0.025547692777200343    -0.0044975885937469035   0.004494253679148963     -0.025544357862602386    0.025544357862602386     -0.004494253679148963    0.0044975885937469035    0.025547692777200343
0.009341665837150305      -0.005289475260977233    -0.005115078877525037    2.659344683092919E-7     -0.02592312341665636     -0.004765222372747428    0.004767349848493892     -0.02592525089240281     0.02592525089240281      -0.004767349848493892    0.004765222372747428     0.02592312341665636
0.012433419266741049      -0.005301214849512984    -0.005200607451002726    8.264338421572521E-8     -0.026203921478497306    -0.0049990620804453755   0.004999723227519091     -0.026204582625571       0.026204582625571        -0.004999723227519091    0.0049990620804453755    0.026203921478497306
0.012682373068814699      -0.005302496829842418    -0.005207819870131322    -3.4763877926484753E-8   -0.026228592325590532    -0.005018605006220858    0.005018326895197437     -0.02622831421456709     0.02622831421456709      -0.005018326895197437    0.005018605006220858     0.026228592325590532
0.014578594046191561      -0.005318739484703212    -0.005268128991436227    4.106174933756707E-7     -0.026440223473741628    -0.005165265534928782    0.005168550474875779     -0.026443508413688605    0.026443508413688605     -0.005168550474875779    0.005165265534928782     0.026440223473741628
0.01607440119303544       -0.0053264051441198074   -0.0053117176008130665   8.513840103198111E-7     -0.026584557554637567    -0.005278936978158335    0.005285748050240884     -0.02659136862672009     0.02659136862672009      -0.005285748050240884    0.005278936978158335     0.026584557554637567
0.017999329699035657      -0.005334940974563279    -0.005370764569876992    -3.253455321843301E-7    -0.026783477040886305    -0.005443713142633184    0.005441110378375701     -0.026780874276628792    0.026780874276628792     -0.005441110378375701    0.005443713142633184     0.026783477040886305
0.018992615939032908      -0.005339345565642906    -0.0054012335154518115   -9.325521162856336E-7    -0.026886121886106423    -0.005528739623534794    0.0055212792066045005    -0.026878661469176102    0.026878661469176102     -0.0055212792066045005   0.005528739623534794     0.026886121886106423
0.019815522255232816      -0.005345805951562941    -0.005428808182076317    -8.542359238972978E-7    -0.026981453393050456    -0.0055982295867986875   0.005591395699407501     -0.026974619505659242    0.026974619505659242     -0.005591395699407501    0.0055982295867986875    0.026981453393050456
0.02383065542781043       -0.005363511307962121    -0.005552652970145495    -2.3205152831945636E-7   -0.027385909732474026    -0.0059318645006255465   0.005930008088398984     -0.027384053320247438    0.027384053320247438     -0.005930008088398984    0.0059318645006255465    0.027385909732474026
0.025087871588999618      -0.005369589696364097    -0.005591061070412648    5.642505835998461E-8     -0.02751213690373272     -0.006033778118276336    0.0060342295187432084    -0.02751258830419957     0.02751258830419957      -0.0060342295187432084   0.006033778118276336     0.02751213690373272
0.025898286149232536      -0.005373135051064869    -0.005617384697354545    -3.213089372503418E-8    -0.027598552717768295    -0.0061060125135088215   0.006105755466359013     -0.027598295670618465    0.027598295670618465     -0.006105755466359013    0.0061060125135088215    0.027598552717768295
0.029179555968884486      -0.005386599944836238    -0.005724238747031571    -7.173820805759188E-7    -0.027948785659089516    -0.006402385879744562    0.006396646823099948     -0.02794304660244488     0.02794304660244488      -0.006396646823099948    0.006402385879744562     0.027948785659089516
0.030534288518236183      -0.005392147129060128    -0.005768140900964194    -9.207877545260653E-7    -0.028092400112030964    -0.006523811595790453    0.006516445293754236     -0.028085033809994733    0.028085033809994733     -0.006516445293754236    0.006523811595790453     0.028092400112030964
0.030697680358932583      -0.005392753274787929    -0.005773414823991425    -9.856330812980501E-7    -0.028109693553875346    -0.006538680454723633    0.006530795390073242     -0.02810180848922494     0.02810180848922494      -0.006530795390073242    0.006538680454723633     0.028109693553875346
0.0339380966818043        -0.005401584811966527    -0.005876501409444538    -6.968964840130799E-7    -0.02843546143820274     -0.006829122190336638    0.006823547018464525     -0.028429886266330626    0.028429886266330626     -0.006823547018464525    0.006829122190336638     0.02843546143820274
0.034012408157755226      -0.005401787342906155    -0.005878865462563792    -6.902749759821986E-7    -0.028442932173407633    -0.006835782801783016    0.0068302606019751515    -0.02843740997359976     0.02843740997359976      -0.0068302606019751515   0.006835782801783016     0.028442932173407633
0.03406217362811878       -0.005401960058166019    -0.005880471861672039    -6.482613640793168E-7    -0.02844792874680449     -0.006840088514140421    0.006834902423227778     -0.028442742655891844    0.028442742655891844     -0.006834902423227778    0.006840088514140421     0.02844792874680449
0.03495680988579745       -0.00540506496871142     -0.0059093501758131954   1.0701936068376049E-7    -0.028537752387419707    -0.006917492512574034    0.006918348667459498     -0.028538608542305166    0.028538608542305166     -0.006918348667459498    0.006917492512574034     0.028537752387419707
0.03596979703901795       -0.0054080076996013806   -0.00594416566237326     -2.0007161571195496E-7   -0.028649312672785407    -0.007017281874379891    0.007015681301454188     -0.0286477120998597      0.0286477120998597       -0.007015681301454188    0.007017281874379891     0.028649312672785407
0.036744279335556775      -0.0054099594720398905   -0.005970684231969709    -6.259434677708805E-7    -0.02873447541386001     -0.0070946375257004545   0.00708962997795828      -0.028729467866117832    0.028729467866117832     -0.00708962997795828     0.0070946375257004545    0.02873447541386001
0.03678875572407525       -0.005410071556963797    -0.005972207120497435    -6.504001171170384E-7    -0.028739366075888385    -0.007099079848033204    0.007093876647096259     -0.02873416287495144     0.02873416287495144      -0.007093876647096259    0.007099079848033204     0.028739366075888385
0.03974241507267441       -0.005414607683437542    -0.006071968084382295    -8.391524248517195E-7    -0.0290484762297214      -0.007390045495971236    0.007383332276572412     -0.029041763010322574    0.029041763010322574     -0.007383332276572412    0.007390045495971236     0.0290484762297214
0.03983353802000526       -0.005414801191665693    -0.006075046634471118    -8.58092359138161E-7     -0.029058174656181313    -0.007398969889518546    0.007392105150645431     -0.0290513099173082      0.0290513099173082       -0.007392105150645431    0.007398969889518546     0.029058174656181313
0.0414053055597997        -0.005418138989230416    -0.00612814813350049     -1.1847847542949884E-6   -0.0292254615179795      -0.007552905561057844    0.007543427283023473     -0.029215983239945127    0.029215983239945127     -0.007543427283023473    0.007552905561057844     0.0292254615179795
0.042019717734586876      -0.005419017103075941    -0.006148299391268062    -1.1818228403583874E-6   -0.029287659671317523    -0.007611591259013764    0.007602136676290886     -0.02927820508859464     0.02927820508859464      -0.007602136676290886    0.007611591259013764     0.029287659671317523
0.04323754800968302       -0.005421379663338182    -0.0061889118573196155   -7.996784982254127E-7    -0.029412693612628132    -0.00772717495927541     0.0077207775312895955    -0.029406296184642314    0.029406296184642314     -0.0077207775312895955   0.00772717495927541      0.029412693612628132
0.04431544657404061       -0.0054222070892058      -0.006226494180486989    -8.119503267384107E-7    -0.029527144521179542    -0.007838316164356348    0.00783182056174243      -0.029520648918565616    0.029520648918565616     -0.00783182056174243     0.007838316164356348     0.029527144521179542
0.047448804539581356      -0.005424612344689873    -0.006335742745754538    -8.476234715912202E-7    -0.029859843420529747    -0.00816139404177026     0.008154613053997518     -0.029853062432757       0.029853062432757        -0.008154613053997518    0.00816139404177026      0.029859843420529747
0.04789886547389011       -0.005424874384287479    -0.006350745984129261    -8.165633356346847E-7    -0.0299052529743053      -0.008205755437155387    0.008199222930470299     -0.02989872046762021     0.02989872046762021      -0.008199222930470299    0.008205755437155387     0.0299052529743053
0.04948974851191579       -0.005427151755221425    -0.0064076560685523976   -2.0744206671030175E-7   -0.030078101484366904    -0.008369494463481212    0.008367834926947518     -0.03007644194783321     0.03007644194783321      -0.008367834926947518    0.008369494463481212     0.030078101484366904
0.051314780706341545      -0.005428456491249017    -0.006471050112214117    5.509004885232895E-7     -0.03026785971718631     -0.00855403375219025     0.008558440956098427     -0.030272266921094484    0.030272266921094484     -0.008558440956098427    0.00855403375219025      0.03026785971718631
0.05424383332782213       -0.005427305607416931    -0.006574415456814166    1.1035428159168391E-6    -0.03057344341401272     -0.008864220984344993    0.00887304932687232      -0.030582271756540033    0.030582271756540033     -0.00887304932687232     0.008864220984344993     0.03057344341401272
0.05483448966035355       -0.005427073526634756    -0.006595259532780767    1.2149855697636051E-6    -0.03063506570933278     -0.008926771602793763    0.008936491487351862     -0.030644785593890868    0.030644785593890868     -0.008936491487351862    0.008926771602793763     0.03063506570933278
0.05568019479713623       -0.00542524032305784     -0.006625725427530424    9.71382180477325E-7      -0.030723771399985066    -0.009022810107753711    0.009030581165197522     -0.030731542457428863    0.030731542457428863     -0.009030581165197522    0.009022810107753711     0.030723771399985066
0.05939998114142595       -0.005417177080521961    -0.006759727947235426    -1.0009358746832444E-7   -0.0311139383771001      -0.009445230055012256    0.009444429306312506     -0.031113137628400324    0.031113137628400324     -0.009444429306312506    0.009445230055012256     0.0311139383771001
0.05940697112222169       -0.005417155995231759    -0.006759971781895875    -1.0212076291363933E-7   -0.031114635819202822    -0.009446011838275791    0.009445194872172477     -0.03111381885309949     0.03111381885309949      -0.009445194872172477    0.009446011838275791     0.031114635819202822
0.05943634078667356       -0.005417121551322485    -0.006761060543145733    -8.810417192780932E-8    -0.03111777714876991     -0.00944929094347997     0.009448586110104542     -0.031117072315394456    0.031117072315394456     -0.009448586110104542    0.00944929094347997      0.03111777714876991
0.061036613804999466      -0.005416214108029529    -0.006820765965046602    5.560773214932731E-7     -0.03129250180191292     -0.009627645369794805    0.009632093988366746     -0.03129695042048484     0.03129695042048484      -0.009632093988366746    0.009627645369794805     0.03129250180191292
0.061053596562161576      -0.005416174337843628    -0.006821412058571319    5.54817556624018E-7      -0.031294365581174745    -0.009629668229800237    0.009634106770253222     -0.03129880412162771     0.03129880412162771      -0.009634106770253222    0.009629668229800237     0.031294365581174745
0.06229835543003371       -0.005413259364079067    -0.006868767775707828    4.6248252071244654E-7    -0.03143097212519879     -0.009777934668882526    0.00978163452904822      -0.03143467198536447     0.03143467198536447      -0.00978163452904822     0.009777934668882526     0.03143097212519879
0.07091507677055327       -0.005385768635016562    -0.007187573591095014    3.7629076268991877E-7    -0.03233275288026742     -0.010789678340201184    0.010792688666302695     -0.03233576320636891     0.03233576320636891      -0.010792688666302695    0.010789678340201184     0.03233275288026742
0.07184596924683952       -0.005382907135842906    -0.0072265895334015255   5.596002368073936E-7     -0.03244334447094317     -0.01091171592757156     0.01091619272946601      -0.0324478212728376      0.0324478212728376       -0.01091619272946601     0.01091171592757156      0.03244334447094317
0.07205318845862338       -0.005382270158298893    -0.007235274588891514    6.00405427209919E-7      -0.032467962461563506    -0.010938881828367945    0.010943685071785614     -0.032472765704981164    0.032472765704981164     -0.010943685071785614    0.010938881828367945     0.032467962461563506
0.07328193015372586       -0.005378363071564212    -0.00728743654365145     7.537351874224161E-7     -0.0326160208333331      -0.01110256854707626     0.011108598428575629     -0.03262205071483246     0.03262205071483246      -0.011108598428575629    0.01110256854707626      0.0326160208333331
0.07364701619117905       -0.00537631615468904     -0.007302388379396082    7.289023201811302E-7     -0.03265688183828562     -0.011151617219529467    0.011157448438090904     -0.03266271305684704     0.03266271305684704      -0.011157448438090904    0.011151617219529467     0.03265688183828562
0.0737810464749332        -0.005375324351159775    -0.007307972763943079    7.369621181999793E-7     -0.03267161914567601     -0.01117032174103691     0.011176217437982498     -0.032677514842621574    0.032677514842621574     -0.011176217437982498    0.01117032174103691      0.03267161914567601
0.07683567633662178       -0.00535272055899759     -0.0074352442082660656   9.206497074370031E-7     -0.033007491143963646    -0.011596608907973295    0.01160397410563278      -0.033014856341623114    0.033014856341623114     -0.01160397410563278     0.011596608907973295     0.033007491143963646
0.07970649085266525       -0.005335130538390943    -0.007549089999830117    2.2785264988351275E-6    -0.03330841697027692     -0.01196789481671315     0.01198612302870382      -0.03332664518226758     0.03332664518226758      -0.01198612302870382     0.01196789481671315      0.03330841697027692
0.07988735582283142       -0.005333961708592617    -0.00755605512905925     2.306956399719806E-6     -0.033326860978764125    -0.011991014144393661    0.01200946979559141      -0.03334531662996186     0.03334531662996186      -0.01200946979559141     0.011991014144393661     0.033326860978764125
0.08442373693380159       -0.005304645598269005    -0.007730751647912351    3.0200235306379754E-6    -0.03378946604615254     -0.012570883653076521    0.012595043841321613     -0.03381362623439762     0.03381362623439762      -0.012595043841321613    0.012570883653076521     0.03378946604615254
0.08608972479603022       -0.005287052885119247    -0.007796124336379797    2.081599486578752E-6     -0.033954152381431596    -0.012805940840954612    0.012822593636847231     -0.033970805177324204    0.033970805177324204     -0.012822593636847231    0.012805940840954612     0.033954152381431596
0.08906471175307681       -0.005255637234773765    -0.007912861618773654    4.058374029820131E-7     -0.03424823597625659     -0.013225687037161538    0.013228933736385382     -0.034251482675480414    0.034251482675480414     -0.013228933736385382    0.013225687037161538     0.03424823597625659
0.09245462207558136       -0.005215899525567128    -0.008053088193036672    5.623954867134201E-7     -0.034588814048297445    -0.013725215946028938    0.013729715109922633     -0.03459331321219111     0.03459331321219111      -0.013729715109922633    0.013725215946028938     0.034588814048297445
0.09557098406571743       -0.005183715405449766    -0.008169153612868093    4.3804749265074216E-7    -0.034873139459533235    -0.014138277837734178    0.01414178221767537      -0.034876643839474405    0.034876643839474405     -0.01414178221767537     0.014138277837734178     0.034873139459533235
0.09711464922645126       -0.0051711242076263      -0.008237489555740484    1.4210814853012256E-7    -0.03505414864987996     -0.014369651819374765    0.014370788684562992     -0.03505528551506816     0.03505528551506816      -0.014370788684562992    0.014369651819374765     0.03505414864987996
0.09931041758912207       -0.0051532140062872      -0.008334693214415493    -2.7884729285632893E-7   -0.03531162304499234     -0.014698767019843538    0.014696536241500672     -0.03530939226664944     0.03530939226664944      -0.014696536241500672    0.014698767019843538     0.03531162304499234
0.10077790278994361       -0.0051391988299218485   -0.00840728153795386     7.314751880734741E-7     -0.03549731637295302     -0.01494052105326562     0.014946372854770192     -0.035503168174457554    0.035503168174457554     -0.014946372854770192    0.01494052105326562      0.03549731637295302
0.10448240731497456       -0.00507202639036364     -0.008549709849189152    1.0952313535185763E-6    -0.035788801402880696    -0.015500695841426134    0.015509457692254267     -0.035797563253708795    0.035797563253708795     -0.015509457692254267    0.015500695841426134     0.035788801402880696
0.10571447960175469       -0.005049211821298013    -0.008592152630203645    4.0817463589966436E-7    -0.03587324883466339     -0.01567640154947134     0.01567966694655852      -0.035876514231750534    0.035876514231750534     -0.01567966694655852     0.01567640154947134      0.03587324883466339
0.10578002923534405       -0.005047998023488585    -0.008594410702862095    3.7162132926474496E-7    -0.03587774167024642     -0.01568574957629209     0.01568872254692619      -0.035880714640880496    0.035880714640880496     -0.01568872254692619     0.01568574957629209      0.03587774167024642
0.10813734550955162       -0.0050081585638007105   -0.008711292963840298    -1.475184537184576E-6    -0.03615609675727108     -0.016123462502068243    0.01611166102577075      -0.03614429528097356     0.03614429528097356      -0.01611166102577075     0.016123462502068243     0.03615609675727108
0.1101307928841642        -0.004978401483709876    -0.008796564735997204    -1.6431918507068156E-6   -0.03635306994281422     -0.01643946400797472     0.016426318473169048     -0.03633992440800851     0.03633992440800851      -0.016426318473169048    0.01643946400797472      0.03635306994281422
0.11437900574862113       -0.004914986511205209    -0.008978286432825246    -2.0012303119763172E-6   -0.03677283724213409     -0.01711289119731326     0.017096881354817434     -0.03675682739963824     0.03675682739963824      -0.017096881354817434    0.01711289119731326      0.03677283724213409
0.11623951375720848       -0.0048810668307339876   -0.00904506724086879     -3.4750307230699416E-7   -0.0368987253963636      -0.01737445807342766     0.017371678048849187     -0.03689594537178511     0.03689594537178511      -0.017371678048849187    0.01737445807342766      0.0368987253963636
0.11860618525096553       -0.004822513963926654    -0.009143485707286797    -2.424162823678791E-7    -0.0370764547148432      -0.01778639885913658     0.01778445952887762      -0.037074515384584214    0.037074515384584214     -0.01778445952887762     0.01778639885913658      0.0370764547148432
0.1221010294295374        -0.004736049430830239    -0.009288819440900545    -8.723549068115719E-8    -0.03733890612632486     -0.018394708403003914    0.018394010519078446     -0.03733820824239938     0.03733820824239938      -0.018394010519078446    0.018394708403003914     0.03733890612632486
0.1241906159059481        -0.0046900183732698185   -0.009374019755470975    -3.601005880277371E-7    -0.0375035364153047      -0.01874346292222543     0.01874058211752119      -0.03750065561060044     0.03750065561060044      -0.01874058211752119     0.01874346292222543      0.0375035364153047
0.13138927194973082       -0.004517878300472722    -0.00964739424814557     -3.754813734450414E-7    -0.03797944127087596     -0.01990792806898508     0.0199049242179975       -0.037976437419888355    0.037976437419888355     -0.0199049242179975      0.01990792806898508      0.03797944127087596
0.13233243384271368       -0.004494246168106863    -0.009685113098190675    -6.139481887472373E-8    -0.03804407721006128     -0.02006709253763383     0.020066601379082817     -0.03804358605151024     0.03804358605151024      -0.020066601379082817    0.02006709253763383      0.03804407721006128
0.13450696857009695       -0.004433544187321682    -0.009778146713774768    -9.9242541449627E-9      -0.038201568212984274    -0.020467391463697554    0.02046731206966438      -0.03820148881895107     0.03820148881895107      -0.02046731206966438     0.020467391463697554     0.038201568212984274
0.13797549560335978       -0.0043378875239090935   -0.009926309576260086    -1.039838952794962E-7    -0.03845511971217959     -0.021103569616543222    0.02110273774538097      -0.038454287841017315    0.038454287841017315     -0.02110273774538097     0.021103569616543222     0.03845511971217959
0.13892351242555798       -0.0043117426718722405   -0.009966805407693461    -1.2969224964156642E-7   -0.038524420335823456    -0.021277449648334505    0.02127641211033736      -0.0385233827978263      0.0385233827978263       -0.02127641211033736     0.021277449648334505     0.038524420335823456
0.1404429190721712        -0.004266742839128208    -0.010025685831206955    1.4965268233576779E-7    -0.03860994456114797     -0.02154297320463514     0.021544170426093807     -0.03861114178260662     0.03861114178260662      -0.021544170426093807    0.02154297320463514      0.03860994456114797
0.14099096327561866       -0.004250511570463927    -0.010046923776213336    2.5041133774500117E-7    -0.03864079282421691     -0.021638746542361205    0.021640749833063154     -0.03864279611491884     0.03864279611491884      -0.021640749833063154    0.021638746542361205     0.03864079282421691
0.14529208163297191       -0.004121713119255369    -0.010209085858547354    2.834400422247423E-7     -0.03886955005398392     -0.022382697576962454    0.022384965097300237     -0.0388718175743217      0.0388718175743217       -0.022384965097300237    0.022382697576962454     0.03886955005398392
0.14806396564469476       -0.004027533082604315    -0.010317159609573797    -4.926690853258671E-7    -0.039008515670271346    -0.02289838333985409     0.02289444198717147      -0.03900457431758872     0.03900457431758872      -0.02289444198717147     0.02289838333985409      0.039008515670271346
0.14857295670560364       -0.004010239142248686    -0.010337004802575635    -6.351832044384919E-7    -0.03903403342504206     -0.022993076856047318    0.022987995390411797     -0.03902895195940652     0.03902895195940652      -0.022987995390411797    0.022993076856047318     0.03903403342504206
0.15128323162728002       -0.00392465278190777     -0.0104498134029888      -4.771061436849049E-7    -0.039200654197356716    -0.02350204306972563     0.02349822622057614      -0.03919683734820721     0.03919683734820721      -0.02349822622057614     0.02350204306972563      0.039200654197356716
0.15510780442559643       -0.003780786949503103    -0.010593957237997439    -1.0114328008328203E-7   -0.03934385018611889     -0.024220702388106478    0.0242198932418658       -0.03934304103987819     0.03934304103987819      -0.0242198932418658      0.024220702388106478     0.03934385018611889
0.15579408761948876       -0.00375640729576647     -0.010618630077484864    7.299389284943032E-8     -0.03936841284841617     -0.024342783665350285    0.02434336761649307      -0.039368996799558936    0.039368996799558936     -0.02434336761649307     0.024342783665350285     0.03936841284841617
0.15592402667550556       -0.0037517913162105855   -0.010623301568060156    1.059645674480218E-7     -0.03937306347833188     -0.02436589821348954     0.02436674593002911      -0.039373911194871436    0.039373911194871436     -0.02436674593002911     0.02436589821348954      0.03937306347833188
0.15891022303501962       -0.0036440664315782806   -0.01074059965234511     -1.6801164658508125E-7   -0.03951060386677826     -0.024934338140465136    0.024932994047292455     -0.03950925977360555     0.03950925977360555      -0.024932994047292455    0.024934338140465136     0.03951060386677826
0.16217945283826782       -0.003513935165289343    -0.010866232430307893    3.9325972956039704E-7    -0.03962499458258415     -0.025569253921426782    0.025572399999263258     -0.03962814066042061     0.03962814066042061      -0.025572399999263258    0.025569253921426782     0.03962499458258415
0.16554146590650318       -0.0033892630981666267   -0.010984989943534397    -1.0265501018008529E-7   -0.039733906646977186    -0.026176854254310683    0.026176033014229234     -0.03973308540689573     0.03973308540689573      -0.026176033014229234    0.026176854254310683     0.039733906646977186
0.16573289564350335       -0.003381995392460098    -0.010992123552828643    -1.0143266195504955E-7   -0.039740767174053976    -0.026212785604213584    0.026211974142917937     -0.039739955712758304    0.039739955712758304     -0.026211974142917937    0.026212785604213584     0.039740767174053976
0.16592564376145574       -0.0033738422810794273   -0.010999052104804204    -5.4509867468248254E-8   -0.03974505891604137     -0.02624968979172366     0.026249253712783898     -0.03974462283710159     0.03974462283710159      -0.026249253712783898    0.02624968979172366      0.03974505891604137
0.16813520839215054       -0.00327605252806212     -0.011074017534327947    7.46439078688951E-8      -0.03977385908347664     -0.02666964897122815     0.02667024612249109      -0.03977445623473955     0.03977445623473955      -0.02667024612249109     0.02666964897122815      0.03977385908347664
0.1710656742336712        -0.003146357507202806    -0.011173441478512448    2.459358998166223E-7     -0.03981205570634373     -0.027226625677532496    0.027228593164731012     -0.03981402319354222     0.03981402319354222      -0.027228593164731012    0.027226625677532496     0.03981205570634373
0.17550830320474214       -0.0029339360195681456   -0.011326476592364177    6.796142914278521E-7     -0.03984458335906315     -0.02810883928079056     0.02811427619512196      -0.039850020273394536    0.039850020273394536     -0.02811427619512196     0.02810883928079056      0.03984458335906315
0.17683991850316927       -0.002873363341790086    -0.01137355345767111     1.6218285532140385E-6    -0.03986089974238069     -0.02836744637522034     0.028380421003646024     -0.03987387437080637     0.03987387437080637      -0.028380421003646024    0.02836744637522034      0.03986089974238069
0.181522175121047         -0.0026514712954593877   -0.01152186534528583     1.61670715861468E-6      -0.03986207179814185     -0.02925618661630429     0.02926912027357318      -0.03987500545541073     0.03987500545541073      -0.02926912027357318     0.02925618661630429      0.03986207179814185
0.18331866652405887       -0.0025761264459531127   -0.01156732441657454     3.2277007409134337E-7    -0.03985293506133352     -0.029548429277521063    0.02955101143811377      -0.039855517221926214    0.039855517221926214     -0.02955101143811377     0.029548429277521063     0.03985293506133352
0.1869104499541145        -0.002378380571802065    -0.01166606564757957     5.545424900826358E-7     -0.039752739916382535    -0.030239217629174277    0.030243653969094914     -0.03975717625630318     0.03975717625630318      -0.030243653969094914    0.030239217629174277     0.039752739916382535
0.18979421943059221       -0.002241493428521914    -0.011734432019160492    6.761388532646779E-7     -0.03968357835911227     -0.03071760464502462     0.03072301375585071      -0.03968898746993836     0.03968898746993836      -0.03072301375585071     0.03071760464502462      0.03968357835911227
0.19592037728425826       -0.0019192629119313093   -0.011924683360256646    8.143128095654802E-7     -0.03960931865339433     -0.03193226700566909     0.03193878150814559      -0.03961583315587083     0.03961583315587083      -0.03193878150814559     0.03193226700566909      0.03960931865339433