% Model:              Cylinder_slice_potential_6.mph
% Version:            COMSOL 6.2.0.415
% Date:               May 21 2024, 17:44
% Dimension:          1
% Nodes:              837
% Expressions:        11
% Description:        Line graph
% Arc length (m)          Magnetic scalar potential Magnetic scalar potential Magnetic scalar potential Magnetic scalar potential Magnetic scalar potential Magnetic scalar potential Magnetic scalar potential Magnetic scalar potential Magnetic scalar potential Magnetic scalar potential Magnetic scalar potential
0                         3.7915565534003977E-6    -0.024176625993658978    -3.823529067585599E-7    -0.07252382427949715     -0.07253899050571079     0.07253593168245667      -0.07252076545624306     0.07252076545624306      -0.07253593168245667     0.07253899050571079      0.07252382427949715
2.6220490397117418E-5     3.1634072014016734E-6    -0.024176907910445845    -8.986553614315359E-7    -0.07252799153838044     -0.07254064516718609     0.07253345592429458      -0.07252080229548896     0.07252080229548896      -0.07253345592429458     0.07254064516718609      0.07252799153838044
0.001188867061289238      -2.0324227257072038E-5   -0.024193113602626118    -2.4962186803231482E-5   -0.07271983800960541     -0.07263854110057716     0.07243884360615124      -0.07252014051517952     0.07252014051517952      -0.07243884360615124     0.07263854110057716      0.07271983800960541
0.0029594849574459798     -5.5059362653862285E-5   -0.024214068447442436    -6.674627870636791E-5    -0.0730193091824605      -0.07279907173184508     0.07226510150219409      -0.07248533895280954     0.07248533895280954      -0.07226510150219409     0.07279907173184508      0.0730193091824605
0.0067802670280961725     -1.3001363869147143E-4   -0.02425928650128751     -1.569113614881647E-4    -0.0736655322271981      -0.07314547767243225     0.07189018678052689      -0.07241024133529275     0.07241024133529275      -0.07189018678052689     0.07314547767243225      0.0736655322271981
0.007736547854563925      -1.506622308447828E-4    -0.024271795832267216    -1.7754379368771888E-4   -0.07382688713324206     -0.07322423820986297     0.07180388786036117      -0.07240653678374029     0.07240653678374029      -0.07180388786036117     0.07322423820986297      0.07382688713324206
0.013169180176705226      -2.936424208879667E-4    -0.024341910216093877    -2.871723483631692E-4    -0.07476170488351024     -0.0735871351999584      0.07128975641305299      -0.07246432609660483     0.07246432609660483      -0.07128975641305299     0.0735871351999584       0.07476170488351024
0.014571539613879948      -3.2973132812283163E-4   -0.024357058914968616    -3.1954024749587595E-4   -0.075008800391135       -0.07368987507864369     0.07113355309867665      -0.07245247841116795     0.07245247841116795      -0.07113355309867665     0.07368987507864369      0.075008800391135
0.018250110775552705      -4.2130464473542174E-4   -0.02441008914983139     -4.0312526506804754E-4   -0.07568537779923719     -0.07400015922029551     0.0707751570997511       -0.07246037567869276     0.07246037567869276      -0.0707751570997511      0.07400015922029551      0.07568537779923719
0.02066915100503936       -4.815235523214428E-4    -0.024444962002869754    -4.5809104150758414E-4   -0.07613029727928246     -0.0742042030699967      0.070539474737936        -0.07246556894722175     0.07246556894722175      -0.070539474737936       0.0742042030699967       0.07613029727928246
0.024285347080064138      -5.754329631815457E-4    -0.02449654640066459     -5.392941420003278E-4    -0.07679768169635814     -0.07449594984363198     0.07018159670762933      -0.07248332856035547     0.07248332856035547      -0.07018159670762933     0.07449594984363198      0.07679768169635814
0.027540966308018187      -6.663185632466496E-4    -0.02454373860588295     -6.127039038739193E-4    -0.0774146685596378      -0.07474939430665122     0.06984776307565985      -0.07251303732864642     0.07251303732864642      -0.06984776307565985     0.07474939430665122      0.0774146685596378
0.031248466346954308      -7.661577811984598E-4    -0.02460614858498566     -6.968302314299947E-4    -0.07813808224307384     -0.07507345111828001     0.06949880926684004      -0.07256344039163386     0.07256344039163386      -0.06949880926684004     0.07507345111828001      0.07813808224307384
0.032902313994948876      -8.106942219410464E-4    -0.024633988529979972    -7.343574404662372E-4    -0.07846078379568694     -0.07521800690792275     0.06934314738419284      -0.07258592427195701     0.07258592427195701      -0.06934314738419284     0.07521800690792275      0.07846078379568694
0.035319284662149245      -8.873903588114505E-4    -0.024678361018267883    -7.896325929351517E-4    -0.07896839414416713     -0.07541883270892134     0.0691017719654401       -0.0726513334006859      0.0726513334006859       -0.0691017719654401      0.07541883270892134      0.07896839414416713
0.04007933428562641       -0.001020513939277563    -0.024751286288459386    -9.038034761340334E-4    -0.0799101006484694      -0.07582804489135916     0.06859761708228687      -0.07267967283939711     0.07267967283939711      -0.06859761708228687     0.07582804489135916      0.0799101006484694
0.04469622419049179       -0.001155110011317532    -0.024821777526255438    -0.0010115288232059685   -0.08082166789422522     -0.07620122784895512     0.06810899726330732      -0.07272943730857746     0.07272943730857746      -0.06810899726330732     0.07620122784895512      0.08082166789422522
0.04513282106660136       -0.0011691418132456154   -0.024830880209082896    -0.001021487217130532    -0.08091687312226203     -0.0762403058692796      0.0680684081322353       -0.07274497538521776     0.07274497538521776      -0.0680684081322353      0.0762403058692796       0.08091687312226203
0.045990214627587296      -0.001193469104261608    -0.02484615101064578     -0.00104200015001292     -0.0810933918405122      -0.0763195154234658      0.0679835142233624       -0.07275739064040883     0.07275739064040883      -0.0679835142233624      0.0763195154234658       0.0810933918405122
0.04866289180237136       -0.001274079910399148    -0.02489410012629312     -0.0011066929212637732   -0.08165723188473273     -0.07656091224313616     0.06770736887302593      -0.07280368851462252     0.07280368851462252      -0.06770736887302593     0.07656091224313616      0.08165723188473273
0.04946804244956769       -0.0012983641162677083   -0.02490854491665545     -0.0011261817795265587   -0.08182709010060799     -0.07663363363553717     0.06762417939932468      -0.07281763586439549     0.07281763586439549      -0.06762417939932468     0.07663363363553717      0.08182709010060799
0.059506951538207294      -0.001623827475665804    -0.025088996103929246    -0.0013688788540663214   -0.08399015867938461     -0.0774948487767214      0.06654381794419081      -0.07303912784685401     0.07303912784685401      -0.06654381794419081     0.0774948487767214       0.08399015867938461
0.060355928642830264      -0.0016512868141860205   -0.025106081128963717    -0.0013891470735739053   -0.08417740530955879     -0.07757225805281473     0.06645908146422347      -0.07306422872096753     0.07306422872096753      -0.06645908146422347     0.07757225805281473      0.08417740530955879
0.06184500481958728       -0.0016994495344729455   -0.025136047665893387    -0.001424696822383005    -0.08450582935615805     -0.07770803121826628     0.06631045663920224      -0.07310825477709398     0.07310825477709398      -0.06631045663920224     0.07770803121826628      0.08450582935615805
0.06658885888316757       -0.0018619715114633602   -0.025222857014438785    -0.0015432351174027444   -0.08556545453585404     -0.07811756849000062     0.06577168755077864      -0.07321957359663207     0.07321957359663207      -0.06577168755077864     0.07811756849000062      0.08556545453585404
0.06835869852250713       -0.0019256959858622359   -0.025260015558136572    -0.0015873835594019383   -0.08598097288374192     -0.078278188940293       0.06557912046507747      -0.0732819044085264      0.0732819044085264       -0.06557912046507747     0.078278188940293        0.08598097288374192
0.0724243231353029        -0.002072082011914984    -0.025345375093811642    -0.0016888000880064691   -0.08693548965729074     -0.07864716160963084     0.06513676090557906      -0.07342508895323899     0.07342508895323899      -0.06513676090557906     0.07864716160963084      0.08693548965729074
0.07342176288698912       -0.00210764266889766     -0.025366353492360137    -0.0017136481121103227   -0.08716893826331701     -0.0787383675877264      0.06502918269084379      -0.0734597533664344      0.0734597533664344       -0.06502918269084379     0.0787383675877264       0.08716893826331701
0.07352101377266974       -0.0021112628312840056   -0.02536802054997628     -0.0017160477364892076   -0.08719077825845367     -0.07874572693331768     0.065017345041404        -0.07346239636653998     0.07346239636653998      -0.065017345041404       0.07874572693331768      0.08719077825845367
0.07364219932862115       -0.002115876473252921    -0.02537056493109584     -0.0017193829703929828   -0.08722097962136527     -0.07875747372835362     0.06500240996520973      -0.07346591585822139     0.07346591585822139      -0.06500240996520973     0.07875747372835362      0.08722097962136527
0.07721141499484749       -0.0022376754115892754   -0.025442071548705626    -0.001810136487583725    -0.08804211141963031     -0.07909140977327322     0.0646103178726034       -0.07356101951896049     0.07356101951896049      -0.0646103178726034      0.07909140977327322      0.08804211141963031
0.08388189170511456       -0.0024935801271771594   -0.025592031991099246    -0.001980847949597896    -0.08968664802604362     -0.07971232751733501     0.0638655439205518       -0.07383986442926041     0.07383986442926041      -0.0638655439205518      0.07971232751733501      0.08968664802604362
0.0853972254049832        -0.0025534780532616348   -0.02562372320011026     -0.002020827119792919    -0.0900614341860257      -0.07984752197297919     0.0636809050146358       -0.0738948172276823      0.0738948172276823       -0.0636809050146358      0.07984752197297919      0.0900614341860257
0.08777744711903497       -0.00264756316752082     -0.025673502403093143    -0.0020836246996370237   -0.09065013234286913     -0.08005987967278587     0.06339088207568966      -0.0739811347457729      0.0739811347457729       -0.06339088207568966     0.08005987967278587      0.09065013234286913
0.08783397110652735       -0.0026496451181832483   -0.025674834527476074    -0.002085042084076841    -0.09066396215510206     -0.08006538168236908     0.06338504500975434      -0.0739836254824873      0.0739836254824873       -0.06338504500975434     0.08006538168236908      0.09066396215510206
0.08800490248443021       -0.002656631168881774    -0.025678868538305814    -0.002089517840112221    -0.09070793931312986     -0.08008141463760277     0.06336527191670498      -0.07399179659223205     0.07399179659223205      -0.06336527191670498     0.08008141463760277      0.09070793931312986
0.09123422817685677       -0.0027872791764420764   -0.025751220580103762    -0.002173235016753954    -0.09152116016021122     -0.08037204345444296     0.06298616332041129      -0.07413528002617956     0.07413528002617956      -0.06298616332041129     0.08037204345444296      0.09152116016021122
0.09582424217919217       -0.002972976204612812    -0.025854058421987895    -0.0022922267350320826   -0.09267703461531764     -0.08078512979686639     0.06244731591660971      -0.07433922073506094     0.07433922073506094      -0.06244731591660971     0.08078512979686639      0.09267703461531764
0.09845652721820727       -0.0030799594672200545   -0.025914685957668986    -0.0023596461396620913   -0.09334256136609542     -0.0810227234972152      0.06214555437991846      -0.07446539224879867     0.07446539224879867      -0.06214555437991846     0.0810227234972152       0.09334256136609542
0.09975848548554664       -0.0031381312062384622   -0.025944715682390877    -0.0023944360492057235   -0.09368815365647246     -0.0811356288315186      0.0619801404378728       -0.07453266526282662     0.07453266526282662      -0.0619801404378728      0.0811356288315186       0.09368815365647246
0.10120772260364189       -0.0032055444063669543   -0.025977611858627993    -0.002433972043796721    -0.09407981256380478     -0.08125763493833696     0.06178585858796318      -0.07460803621343096     0.07460803621343096      -0.06178585858796318     0.08125763493833696      0.09407981256380478
0.1027004659007911        -0.003272858165098341    -0.026011520397367614    -0.0024735174145316175   -0.094474347180426       -0.08138291452003264     0.06159477520377969      -0.07468620786417302     0.07468620786417302      -0.06159477520377969     0.08138291452003264      0.094474347180426
0.10604520134191103       -0.003419872146657307    -0.026097492338266966    -0.002563400799977673    -0.0953858245080262      -0.08170633592139698     0.06119912952157557      -0.07487861810820479     0.07487861810820479      -0.06119912952157557     0.08170633592139698      0.0953858245080262
0.10936835725869744       -0.003565937625158777    -0.026182909606420657    -0.002652704276866668    -0.0962914211770462      -0.08202767067641109     0.06080603646147772      -0.07506978696211282     0.07506978696211282      -0.06080603646147772     0.08202767067641109      0.0962914211770462
0.11469569198472873       -0.003810873278891443    -0.02630544112130402     -0.002797102832227689    -0.09772648125060568     -0.08248298813503993     0.060106165477218414     -0.07534965859278416     0.07534965859278416      -0.060106165477218414    0.08248298813503993      0.09772648125060568
0.11505225340767326       -0.0038270768002174513   -0.026314065604543545    -0.0028070384718101807   -0.09782450430130624     -0.08251619710043645     0.060059889325955        -0.07536819652682478     0.07536819652682478      -0.060059889325955       0.08251619710043645      0.09782450430130624
0.11685612043856847       -0.0039090514503717306   -0.026357697416548906    -0.002857303507566726    -0.09832040918065706     -0.08268420337917017     0.05982577531863635      -0.07546198112012323     0.07546198112012323      -0.05982577531863635     0.08268420337917017      0.09832040918065706
0.12041539552316177       -0.004081678054184571    -0.026453267321017666    -0.0029523363782010684   -0.09933250358422639     -0.08300579136748813     0.05938710034187958      -0.07571381255861782     0.07571381255861782      -0.05938710034187958     0.08300579136748813      0.09933250358422639
0.12170571768245853       -0.004143718315944221    -0.026485158524308224    -0.0029886703709733945   -0.09969759368870666     -0.08312272042492982     0.05921335745714265      -0.07578823072091949     0.07578823072091949      -0.05921335745714265     0.08312272042492982      0.09969759368870666
0.12325274751288959       -0.0042173052236229615   -0.026521991166470846    -0.003033090419978288    -0.10013294562657159     -0.08326372473207976     0.05899900137225345      -0.07586822226674525     0.07586822226674525      -0.05899900137225345     0.08326372473207976      0.10013294562657159
0.12461280452194926       -0.004284334094126284    -0.02655365627807736     -0.0030709706236472546   -0.10051351951707364     -0.08337618314056854     0.058808418151390485     -0.07594575452789558     0.07594575452789558      -0.058808418151390485    0.08337618314056854      0.10051351951707364
0.12810462839406114       -0.00446463641273209     -0.026636247305713765    -0.003169323504422664    -0.10151530876029612     -0.08365676310936779     0.058302175073986454     -0.07616072072491477     0.07616072072491477      -0.058302175073986454    0.08365676310936779      0.10151530876029612
0.12871856406691537       -0.004495484181123952    -0.02665281879845226     -0.003186394433048895    -0.10169500248980023     -0.08371306576530445     0.058221910300913296     -0.07620384702540905     0.07620384702540905      -0.058221910300913296    0.08371306576530445      0.10169500248980023
0.13391036722255448       -0.004756351155243121    -0.026792957142089097    -0.003330756301938699    -0.10321459894450828     -0.08418919432353582     0.05754314390802622      -0.07656854852899869     0.07656854852899869      -0.05754314390802622     0.08418919432353582      0.10321459894450828
0.13432110743880832       -0.004777762205798306    -0.026803133827228556    -0.003342249034603031    -0.10333392203169438     -0.08422287320850118     0.05748488093167692      -0.07659592975487013     0.07659592975487013      -0.05748488093167692     0.08422287320850118      0.10333392203169438
0.1344545222992481        -0.00478494543978664     -0.026806515112573225    -0.003346007161284769    -0.10337346486243199     -0.08423368310328545     0.05746562581300729      -0.07660540757215381     0.07660540757215381      -0.05746562581300729     0.08423368310328545      0.10337346486243199
0.13462200303407054       -0.004793412415374754    -0.026810237832656677    -0.003350993421320551    -0.10342151201400171     -0.0842478623525027      0.05743991498193829      -0.07661356464343727     0.07661356464343727      -0.05743991498193829     0.0842478623525027       0.10342151201400171
0.13685176813178818       -0.004915088944441499    -0.026860767482586326    -0.003412977408648741    -0.1040643899712369      -0.08440403419347092     0.05710021492428098      -0.07676057070204695     0.07676057070204695      -0.05710021492428098     0.08440403419347092      0.1040643899712369
0.13791628423518346       -0.004975924728681537    -0.02689285221864067     -0.0034410169449321047   -0.10439447389301347     -0.08449077497828733     0.0569626394188305       -0.0768663383335566      0.0768663383335566       -0.0569626394188305      0.08449077497828733      0.10439447389301347
0.13986123593175612       -0.005072054728165158    -0.026941343983618055    -0.0034962480864323938   -0.10495313375291404     -0.08466491484025342     0.05669493014879427      -0.07698314906145487     0.07698314906145487      -0.05669493014879427     0.08466491484025342      0.10495313375291404
0.14344387956529345       -0.005278091279129747    -0.027034221263879027    -0.003596478905240677    -0.10604476197085926     -0.0849323968543403      0.05616056561241488      -0.07727293072893383     0.07727293072893383      -0.05616056561241488     0.0849323968543403       0.10604476197085926
0.14376222722428927       -0.0052966348768913735   -0.02704276477035016     -0.0036054653236167046   -0.1061434253593         -0.08495688585173455     0.05611316326280091      -0.07729970277036637     0.07729970277036637      -0.05611316326280091     0.08495688585173455      0.1061434253593
0.1438427058173803        -0.005301108811633895    -0.02704476950505221     -0.003607689839280861    -0.10616728549554784     -0.0849628502490123      0.056101331534765396     -0.07730576678130095     0.07730576678130095      -0.056101331534765396    0.0849628502490123       0.10616728549554784
0.14387198249929917       -0.005302736349583452    -0.02704549879190912     -0.0036084990785458845   -0.10617596538907778     -0.08496501999074402     0.056097027362376914     -0.07730797276071069     0.07730797276071069      -0.056097027362376914    0.08496501999074402      0.10617596538907778
0.1444707694183172        -0.005333492840680788    -0.027062176245641643    -0.0036254803995847385   -0.10635543601662543     -0.08502146465390231     0.056017621457224394     -0.0773515928199475      0.0773515928199475       -0.056017621457224394    0.08502146465390231      0.10635543601662543
0.14531954642740408       -0.005383951715015886    -0.027086658522849857    -0.003649194496034758    -0.10662465698272033     -0.08508885012265682     0.05589529415437875      -0.07743110101444226     0.07743110101444226      -0.05589529415437875     0.08508885012265682      0.10662465698272033
0.14884210993539312       -0.0055913212370522075   -0.027175563322658646    -0.0037484798391406154   -0.10770325179864279     -0.085337966850434       0.05535012813730905      -0.07771541308551785     0.07771541308551785      -0.05535012813730905     0.085337966850434        0.10770325179864279
0.1496081702133951        -0.005635445667819842    -0.027195471725628605    -0.0037703940814512267   -0.10793888283833038     -0.08539710016705106     0.055233947515441216     -0.07777573018672054     0.07777573018672054      -0.055233947515441216    0.08539710016705106      0.10793888283833038
0.14996627804019116       -0.005654718767874639    -0.02720500850530983     -0.0037808635934914628   -0.10804791742564461     -0.08542904235414608     0.055182133606214365     -0.07780100867771289     0.07780100867771289      -0.055182133606214365    0.08542904235414608      0.10804791742564461
0.15089130675533502       -0.005704503133494442    -0.02722964297123051     -0.003807907401378629    -0.10832956478619492     -0.08551155225221718     0.05504829304118813      -0.07786630557516587     0.07786630557516587      -0.05504829304118813     0.08551155225221718      0.10832956478619492
0.15173340467391258       -0.00575210176606432     -0.027250428439648623    -0.0038325015524984293   -0.1085854950610682      -0.08557708799681095     0.054917075576823494     -0.07792548264108076     0.07792548264108076      -0.054917075576823494    0.08557708799681095      0.1085854950610682
0.15185470014748137       -0.005758787618593809    -0.027253702733975912    -0.0038360474462174957   -0.10862287322398531     -0.08558772274961012     0.05489934317987013      -0.07793449365424535     0.07793449365424535      -0.05489934317987013     0.08558772274961012      0.10862287322398531
0.15254156072318675       -0.005796647634160517    -0.027272244099292388    -0.003856126798971634    -0.10883453476208471     -0.08564794422544268     0.054798929833669595     -0.07798552037031165     0.07798552037031165      -0.054798929833669595    0.08564794422544268      0.10883453476208471
0.15267413506954047       -0.005804632130329597    -0.027275858181648453    -0.003859969622345887    -0.10887671729498809     -0.08565818877366972     0.054778431794902605     -0.07799696031622097     0.07799696031622097      -0.054778431794902605    0.08565818877366972      0.10887671729498809
0.1532995563913039        -0.005842299101995116    -0.027292907665400455    -0.003878098195030802    -0.10907571398031479     -0.08570651757233436     0.054681732012087925     -0.07805092842006836     0.07805092842006836      -0.054681732012087925    0.08570651757233436      0.10907571398031479
0.15609511285621439       -0.006005786739050926    -0.027363036551637694    -0.003956791335933755    -0.10992784847674994     -0.08590470152054626     0.054250370833076204     -0.07827351778927988     0.07827351778927988      -0.054250370833076204    0.08590470152054626      0.10992784847674994
0.1563463798141002        -0.006020443043441759    -0.027369577677854223    -0.003963957142288651    -0.11000544768960079     -0.08592367551583377     0.054212018377524554     -0.07829379055129156     0.07829379055129156      -0.054212018377524554    0.08592367551583377      0.11000544768960079
0.1589305041424178        -0.006175819527714678    -0.0274368181830398      -0.00404088595502873     -0.11082563742466366     -0.08612235931380496     0.05379527167357513      -0.0784985497844338      0.0784985497844338       -0.05379527167357513     0.08612235931380496      0.11082563742466366
0.16067303823178453       -0.006283335391631841    -0.027486204863033745    -0.004089813560909206    -0.11138453961600171     -0.0862511980494744      0.05353268956220074      -0.07866603112872807     0.07866603112872807      -0.05353268956220074     0.0862511980494744       0.11138453961600171
0.16280895978714796       -0.006418757606236659    -0.02754332520020874     -0.0041527237600378275   -0.1120783858532508      -0.08640335542830421     0.053181565348001586     -0.07885659577294821     0.07885659577294821      -0.053181565348001586    0.08640335542830421      0.1120783858532508
0.1649222161102519        -0.006551444899384697    -0.02759522588081935     -0.004213949557540779    -0.11274436567139051     -0.08653858607385176     0.05282698961352551      -0.07903276921106428     0.07903276921106428      -0.05282698961352551     0.08653858607385176      0.11274436567139051
0.16797242835210258       -0.006742961849540426    -0.027670137802117342    -0.004302321079262419    -0.11370562142248253     -0.08673377402432082     0.05231520539022148      -0.07928705278838316     0.07928705278838316      -0.05231520539022148     0.08673377402432082      0.11370562142248253
0.16804652007226517       -0.006747540670409187    -0.027671935768292955    -0.004304477492994577    -0.11372879861767551     -0.08673863593603878     0.05230281599208216      -0.0792929786737189      0.0792929786737189       -0.05230281599208216     0.08673863593603878      0.11372879861767551
0.1680929878401555        -0.006750522020023046    -0.027673041308416347    -0.004305842021859198    -0.11374353605273188     -0.08674144797263972     0.05229471179776613      -0.07929679987785831     0.07929679987785831      -0.05229471179776613     0.08674144797263972      0.11374353605273188
0.17127454950824783       -0.006958642970314587    -0.027756967432029378    -0.00439981493543129     -0.11478744797844243     -0.0869528760971841      0.051754356613733773     -0.0795889284949921      0.0795889284949921       -0.051754356613733773    0.0869528760971841       0.11478744797844243
0.17423009917941368       -0.0071519794102037765   -0.027834931605892285    -0.004487112194696117    -0.11575720241686885     -0.08714928477605377     0.05125238721848481      -0.0798603048592999      0.0798603048592999       -0.05125238721848481     0.08714928477605377      0.11575720241686885
0.17542000191274587       -0.007229085758104661    -0.027863722221077775    -0.0045216854810224034   -0.11613608010353223     -0.08721973707111362     0.05104625322293436      -0.079962596255353       0.079962596255353        -0.05104625322293436     0.0872197370711136       0.11613608010353223
0.17758760776475116       -0.007374663696751911    -0.02791513903993685     -0.004585230941004064    -0.11683566827733058     -0.08733701349032297     0.050655165962290444     -0.08015382074929808     0.08015382074929808      -0.050655165962290444    0.08733701349032297      0.11683566827733058
0.17875010839498962       -0.007452830145414234    -0.027942526746452315    -0.004619588070704492    -0.11721159281300333     -0.08740027223134644     0.05044356766571048      -0.0802548882473674      0.0802548882473674       -0.05044356766571048     0.08740027223134644      0.11721159281300333
0.17922588608168638       -0.00748405458958323     -0.027953370286814633    -0.004633954608915538    -0.11736403847527245     -0.08742782011693959     0.05035618324561525      -0.08029240160394815     0.08029240160394815      -0.05035618324561525     0.08742782011693959      0.11736403847527245
0.18196190705851914       -0.007676260655170873    -0.028023240226545988    -0.00471618633800435     -0.11828698734199708     -0.08758194472131361     0.04985245401727879      -0.08055749663796227     0.08055749663796227      -0.04985245401727879     0.08758194472131361      0.11828698734199708
0.18433902528732288       -0.007843253725057323    -0.028083944844232468    -0.0047876311638511675   -0.11908886663821669     -0.08771585173798743     0.04941480242717806      -0.08078781732740736     0.08078781732740736      -0.04941480242717806     0.08771585173798743      0.11908886663821669
0.18439166772525914       -0.007846887405902747    -0.028085140539604408    -0.004789168947301491    -0.11910587221982462     -0.08771832259621369     0.04940497101780174      -0.08079252064141274     0.08079252064141274      -0.04940497101780174     0.08771832259621369      0.11910587221982462
0.18445280814221274       -0.007851429883625973    -0.02808658821843884     -0.004790995900445164    -0.11912660802434906     -0.08772088848984523     0.0493929212862839       -0.08079864082078779     0.08079864082078779      -0.0493929212862839      0.08772088848984523      0.11912660802434906
0.18877028796223236       -0.008161730660916718    -0.028180164231113684    -0.004918602913944971    -0.12053836567095433     -0.08789144302728752     0.04854261971572771      -0.08118954235939457     0.08118954235939457      -0.04854261971572771     0.08789144302728752      0.12053836567095433
0.18928306745800424       -0.008198598750320807    -0.028192469821260453    -0.004933629924967247    -0.12070912666429191     -0.08791473166300875     0.04844569226327075      -0.08124008726455398     0.08124008726455398      -0.04844569226327075     0.08791473166300875      0.12070912666429191
0.18996182506771336       -0.008247400421301797    -0.028208758524344242    -0.004953520927175121    -0.12093516012433676     -0.08794555843912963     0.04831739102172863      -0.08130699270693581     0.08130699270693581      -0.04831739102172863     0.08794555843912963      0.12093516012433676
0.19020205349207342       -0.008265938525814552    -0.02821475516144783     -0.004960721635869738    -0.1210190290794515      -0.08795527497619335     0.048269501889235414     -0.08133325599249362     0.08133325599249362      -0.048269501889235414    0.08795527497619335      0.1210190290794515
0.19046218402104376       -0.00828601244898105     -0.02822124859945774     -0.004968518898690252    -0.12110984629109628     -0.08796579649517214     0.04821764530565009      -0.08136169510157429     0.08136169510157429      -0.04821764530565009     0.08796579649517214      0.12110984629109628