% Model:              Cylinder_slice_potential.mph
% Version:            COMSOL 6.2.0.339
% Date:               May 8 2024, 04:47
% Dimension:          1
% Nodes:              761
% Expressions:        11
% Description:        Line graph
% Arc length (m)          Magnetic scalar potential Magnetic scalar potential Magnetic scalar potential Magnetic scalar potential Magnetic scalar potential Magnetic scalar potential Magnetic scalar potential Magnetic scalar potential Magnetic scalar potential Magnetic scalar potential Magnetic scalar potential
0                         -0.005222598368961526    -0.004848758346696041    -1.6846776895139178E-7   -0.024992145649086996    -0.0041017521732408975   0.004100404431089276     -0.024990797906935362    0.024990797906935362     -0.004100404431089276    0.0041017521732408975    0.024992145649086996
0.004944512834239026      -0.005190500238047433    -0.004950919672969199    -2.079201209874695E-5    -0.02531692754339747     -0.004554926591207742    0.004388590494417756     -0.02515059144660747     0.02515059144660747      -0.004388590494417756    0.004554926591207742     0.02531692754339747
0.009361489762294372      -0.00516212944697066     -0.005046700800205168    -3.89142579304627E-5     -0.02562001832627869     -0.004971500538396057    0.004660186474952346     -0.025308704262834963    0.025308704262834963     -0.004660186474952346    0.004971500538396057     0.02562001832627869
0.0093666096560365        -0.005162088248918861    -0.005046811526198686    -3.893639524176612E-5    -0.02562035665740086     -0.004972003661725421    0.004660512499791283     -0.025308865495466706    0.025308865495466706     -0.004660512499791283    0.004972003661725421     0.02562035665740086
0.009384208742033393      -0.005161925520916392    -0.005047179080777778    -3.901166942445425E-5    -0.02562143496186395     -0.0049737328781983906   0.004661639522802746     -0.025309341606468295    0.025309341606468295     -0.004661639522802746    0.0049737328781983906    0.02562143496186395
0.010506531887375773      -0.005150913169954352    -0.005069965050313392    -4.3775386748495534E-5   -0.025686823037842886    -0.005083170358025477    0.004732967264037504     -0.025336619943854895    0.025336619943854895     -0.004732967264037504    0.005083170358025477     0.025686823037842886
0.010843953282826004      -0.005148142377522041    -0.005077337624137441    -4.537221747427854E-5    -0.02570978649735354     -0.0051172169872653805   0.004754239247471143     -0.025346808757559285    0.025346808757559285     -0.004754239247471143    0.0051172169872653805    0.02570978649735354
0.011453990915180613      -0.005142797192247032    -0.005089519011512932    -4.796118125018756E-5    -0.025745996144033632    -0.005174807375045508    0.004791117925043998     -0.025362306694032104    0.025362306694032104     -0.004791117925043998    0.005174807375045508     0.025745996144033632
0.017620064334700286      -0.005088769697714562    -0.0052126447416731775   -7.412963361453667E-5    -0.026111992154906827    -0.005756913364048582    0.005163876295132279     -0.025518955085990506    0.025518955085990506     -0.005163876295132279    0.005756913364048582     0.026111992154906827
0.01860485395827302       -0.0050806098197091615   -0.005233206956732595    -7.819169355364187E-5    -0.026173607283830704    -0.005851168004994056    0.0052256344565649124    -0.02554807373540154     0.02554807373540154      -0.0052256344565649124   0.005851168004994056     0.026173607283830704
0.02111081736785154       -0.005059845632903483    -0.005285530983433694    -8.852829066154251E-5    -0.02633039737875424     -0.006091014847140314    0.005382788521847965     -0.025622171053461876    0.025622171053461876     -0.005382788521847965    0.006091014847140314     0.02633039737875424
0.025324996723628663      -0.005017341357023015    -0.005373421732401133    -1.0772089590804494E-4   -0.02658583149488163     -0.006516466066789574    0.005654698899525206     -0.02572406432761724     0.02572406432761724      -0.005654698899525206    0.006516466066789574     0.02658583149488163
0.02704900801453113       -0.004998873021430285    -0.0054064493141565365   -1.1531114931067601E-4   -0.0266783385825729      -0.006682846496851769    0.005760357302366351     -0.025755849388087462    0.025755849388087462     -0.005760357302366351    0.006682846496851769     0.0266783385825729
0.03026660191299067       -0.004965936851759318    -0.005471023057103858    -1.2909380594968095E-4   -0.026861318098628947    -0.0069975706915916865   0.00596482024399423      -0.02582856765103148     0.02582856765103148      -0.00596482024399423     0.0069975706915916865    0.026861318098628947
0.03480043345316874       -0.004919367584573998    -0.005561229748991965    -1.4790266894260654E-4   -0.02711403509189432     -0.0074365647535983475   0.006253343402057486     -0.02593081374035346     0.02593081374035346      -0.006253343402057486    0.0074365647535983475    0.02711403509189432
0.03633811891552121       -0.004902904141294675    -0.005593706564219621    -1.5464829455002138E-4   -0.027205521153448306    -0.007593904588269621    0.006356718231869441     -0.025968334797048125    0.025968334797048125     -0.006356718231869441    0.007593904588269621     0.027205521153448306
0.03688280903070498       -0.004895945055327147    -0.005604521250373206    -1.571206166335532E-4    -0.02723393632830813     -0.00765015610699956     0.006393191173931126     -0.025976971395239693    0.025976971395239693     -0.006393191173931126    0.00765015610699956      0.02723393632830813
0.03945414970531254       -0.0048630930165117206   -0.005655574577053176    -1.6879180756744944E-4   -0.02736807699445278     -0.00791570492840591     0.006565370467866305     -0.026017742533913167    0.026017742533913167     -0.006565370467866305    0.00791570492840591      0.02736807699445278
0.039806040164431324      -0.004858825740672548    -0.005662649281763496    -1.703250669799895E-4    -0.027386899594555553    -0.007951596631865374    0.0065889960960254495    -0.02602429905871562     0.02602429905871562      -0.0065889960960254495   0.007951596631865374     0.027386899594555553
0.04019032934577035       -0.0048544159558647345   -0.00567009321014865     -1.7199890065230634E-4   -0.027407107144784656    -0.007989443321325732    0.006613452116107272     -0.02603111593956619     0.02603111593956619      -0.006613452116107272    0.007989443321325732     0.027407107144784656
0.04265947990079611       -0.004825618602363035    -0.0057179553265649255   -1.8291903575701654E-4   -0.027536779327448926    -0.008234304917996801    0.00677095263194066      -0.02607342704139278     0.02607342704139278      -0.00677095263194066     0.008234304917996801     0.027536779327448926
0.04350101284981445       -0.004815803922668074    -0.0057342676360318656   -1.8664082318696506E-4   -0.027580974046179624    -0.008317758355507333    0.006824631770011603     -0.02608784746068388     0.02608784746068388      -0.006824631770011603    0.008317758355507333     0.027580974046179624
0.0440305203924649        -0.004809064856833304    -0.005743905710086088    -1.8892001371717795E-4   -0.027605526898793604    -0.008369267471460393    0.00685790736172296      -0.02609416678905616     0.02609416678905616      -0.00685790736172296     0.008369267471460393     0.027605526898793604
0.046528337734175904      -0.004777275025427384    -0.0057893708764420355   -1.9967151614702628E-4   -0.027721348744769       -0.00861224864305947     0.0070148765138832525    -0.02612397661559277     0.02612397661559277      -0.0070148765138832525   0.00861224864305947      0.027721348744769
0.04817926741072276       -0.004755851463047182    -0.005817814186668212    -2.067844769977068E-4    -0.027792283394089845    -0.008768877541901123    0.00711460172591946      -0.026138007578108174    0.026138007578108174     -0.00711460172591946     0.008768877541901123     0.027792283394089845
0.049231840780250155      -0.00474195020216521     -0.005838213743762172    -2.1105152218829783E-4   -0.027842747724370148    -0.00887494691570931     0.00718653473820292      -0.02615433554686375     0.02615433554686375      -0.00718653473820292     0.00887494691570931      0.027842747724370148
0.05167212853299333       -0.0047097214971076285   -0.005885508108961745    -2.2094424645860327E-4   -0.027959744306934924    -0.009120858318504418    0.0073533043468355834    -0.026192190335266083    0.026192190335266083     -0.0073533043468355834   0.009120858318504418     0.027959744306934924
0.0561997877156408        -0.004644947008667454    -0.005973209381704653    -2.4150919132895238E-4   -0.028175558927764695    -0.009595770893094888    0.00766369736246326      -0.02624348539713306     0.02624348539713306      -0.00766369736246326     0.009595770893094888     0.028175558927764695
0.0598517268915613        -0.004587864153794748    -0.006034936869919787    -2.592598196426002E-4    -0.028317578195919277    -0.009966121580740292    0.00789204302359948      -0.026243499638778457    0.026243499638778457     -0.00789204302359948     0.009966121580740292     0.028317578195919277
0.06037954210661132       -0.004579613961809359    -0.006043858351329333    -2.6182532012037843E-4   -0.028338104258088248    -0.010019648410850821    0.007925045849887784     -0.0262435016971252      0.0262435016971252       -0.007925045849887784    0.010019648410850821     0.028338104258088248
0.06101611606201477       -0.004570329731170327    -0.00605396625205811     -2.6457445354230045E-4   -0.028360856032684203    -0.010079537108002903    0.007962941479664488     -0.02624426040434578     0.02624426040434578      -0.007962941479664488    0.010079537108002903     0.028360856032684203
0.06185937829877146       -0.0045578368453402796   -0.00606917076312682     -2.6800155458085614E-4   -0.028395192198384465    -0.010163844817023355    0.008019832380376493     -0.026251179761737596    0.026251179761737596     -0.008019832380376493    0.010163844817023355     0.028395192198384465
0.06568776682357913       -0.0045011194700461605   -0.00613819884616377     -2.8356050376352767E-4   -0.02855107749363776     -0.010546599613453129    0.008278115583344898     -0.02628259346352952     0.02628259346352952      -0.008278115583344898    0.010546599613453129     0.02855107749363776
0.06889856258146715       -0.004450021530279692    -0.006196057537275245    -2.9817685410907696E-4   -0.028680923088821444    -0.010880836967702685    0.00849542213483006      -0.026295508255948806    0.026295508255948806     -0.00849542213483006     0.010880836967702685     0.028680923088821444
0.0738529647133068        -0.004364613318424929    -0.006273111342825451    -3.223086825750235E-4    -0.028837795395626326    -0.011379342121926612    0.008800872661326415     -0.026259325935026116    0.026259325935026116     -0.008800872661326415    0.011379342121926612     0.028837795395626326
0.0742307464790467        -0.004358884644070051    -0.006279677583498977    -3.2408798853152284E-4   -0.028853153992763145    -0.011417615416482944    0.008824911508230752     -0.026260450084510938    0.026260450084510938     -0.008824911508230752    0.011417615416482944     0.028853153992763145
0.07744129651396693       -0.004307045115844163    -0.006330884747384681    -3.381923812925788E-4    -0.02895951399901271     -0.011731333535636058    0.009025794485295419     -0.026253974948672057    0.026253974948672057     -0.009025794485295419    0.011731333535636058     0.02895951399901271
0.07855125670122085       -0.004285488773957685    -0.006347897803408723    -3.430146885324764E-4    -0.028986729712271467    -0.01184477461644073     0.00910065710818091      -0.026242612204011632    0.026242612204011632     -0.00910065710818091     0.01184477461644073      0.028986729712271467
0.08027138903895283       -0.004252082385883646    -0.00637426335071993     -3.5048793552014455E-4   -0.02902890656600769     -0.0120205770224731      0.009216673538311937     -0.026225003081846505    0.026225003081846505     -0.009216673538311937    0.0120205770224731       0.02902890656600769
0.08159733744729347       -0.004226227850907448    -0.006396158459808244    -3.568269511087487E-4    -0.029068238885674648    -0.012163327482044857    0.009308711873174856     -0.026213623276804633    0.026213623276804633     -0.009308711873174856    0.012163327482044857     0.029068238885674648
0.08548766167247189       -0.004153740553845693    -0.0064491023093207955   -3.7400624713919244E-4   -0.02915081302421057     -0.012535850808827798    0.00954380083171425      -0.026158763047097005    0.026158763047097005     -0.00954380083171425     0.012535850808827798     0.02915081302421057
0.08783227232963899       -0.004107404667024549    -0.006482810538696794    -3.8472405232411636E-4   -0.029202137159435974    -0.012772518491337776    0.009694726072744835     -0.026124344740843013    0.026124344740843013     -0.009694726072744835    0.012772518491337776     0.029202137159435974
0.09061499178362802       -0.0040552725285553474   -0.006524157872531207    -3.9725588557902385E-4   -0.029272042217020438    -0.01305095210279905     0.009872905018166848     -0.02609399513238822     0.02609399513238822      -0.009872905018166848    0.01305095210279905      0.029272042217020438
0.0942961123131198        -0.003986309527312016    -0.00657885419457669     -4.138336216496433E-4    -0.0293645161249527      -0.013419278015704635    0.010108609042507478     -0.02605384715175553     0.02605384715175553      -0.010108609042507478    0.013419278015704635     0.0293645161249527
0.09744858430490409       -0.003923742297308384    -0.006616102007254295    -4.2756893382017805E-4   -0.029406066351660383    -0.013711097162426852    0.010290545691865417     -0.025985514881098938    0.025985514881098938     -0.010290545691865417    0.013711097162426852     0.029406066351660383
0.09936090598807343       -0.0038850517641517623   -0.006641262734900646    -4.359870372171089E-4    -0.029437839881873925    -0.013897632825266876    0.010409736527529993     -0.02594994358413703     0.02594994358413703      -0.010409736527529993    0.013897632825266876     0.029437839881873925
0.10095385834517688       -0.003848339647901508    -0.006658757606300916    -4.433385025676797E-4    -0.029446306124976507    -0.014052947533370476    0.010506239512829028     -0.025899598104435047    0.025899598104435047     -0.010506239512829028    0.014052947533370476     0.029446306124976507
0.10770209408365082       -0.003707175593684999    -0.0067454628535163295   -4.743911674571956E-4    -0.029548304417747792    -0.0147196020430078      0.010924472703350226     -0.025753175078090208    0.025753175078090208     -0.010924472703350226    0.0147196020430078       0.029548304417747792
0.11000074257640649       -0.003662834612135351    -0.006776409104803007    -4.843676599769847E-4    -0.02959236717858768     -0.014941028730046286    0.011066087450230399     -0.025717425898771788    0.025717425898771788     -0.011066087450230399    0.014941028730046286     0.02959236717858768
0.11398598318531182       -0.003577043036854316    -0.00681981556768259     -5.024536953683806E-4    -0.02962334755822995     -0.015315175410812686    0.011295545847865632     -0.025603717995282885    0.025603717995282885     -0.011295545847865632    0.015315175410812686     0.02962334755822995
0.11646489509478432       -0.0035264441289122677   -0.006844947269832355    -5.129038988687688E-4    -0.029639345662796697    -0.015533569147147633    0.011430337956197472     -0.025536114471846533    0.025536114471846533     -0.011430337956197472    0.015533569147147633     0.029639345662796697
0.11808719561275877       -0.0034933301508601826   -0.006861394475261216    -5.197429359829297E-4    -0.029649815471435755    -0.015676494867995026    0.01151855138013158      -0.025491871983572303    0.025491871983572303     -0.01151855138013158     0.015676494867995026     0.029649815471435755
0.12328098462112977       -0.0033783560356554733   -0.00690761657886082     -5.415085305521187E-4    -0.029645595930101902    -0.01613217178748001     0.011800103543063052     -0.025313527685684935    0.025313527685684935     -0.011800103543063052    0.01613217178748001      0.029645595930101902
0.12510288328362146       -0.0033380249428107294   -0.006923830558402528    -5.491435553038038E-4    -0.029644115782044282    -0.01629201601080136     0.011898867568370924     -0.02525096733961383     0.02525096733961383      -0.011898867568370924    0.01629201601080136      0.029644115782044282
0.12623988322781246       -0.0033135304852267835   -0.006937019085426294    -5.539499968211276E-4    -0.029653918214016986    -0.016399796273109845    0.011968196298540817     -0.02522231823944794     0.02522231823944794      -0.011968196298540817    0.016399796273109845     0.029653918214016986
0.1280483335922148        -0.003271636537294273    -0.0069485642420153825   -5.621926341332984E-4    -0.02963773633716791     -0.016551190187990818    0.012053649114924425     -0.0251401952641015      0.0251401952641015       -0.012053649114924425    0.016551190187990818     0.02963773633716791
0.13059012842753975       -0.0032115820841366453   -0.006970558365566135    -5.730613848329968E-4    -0.029627084804303705    -0.016780756467757122    0.012196265389093141     -0.025042593725639703    0.025042593725639703     -0.012196265389093141    0.016780756467757122     0.029627084804303705
0.13331859495037995       -0.0031522695994170846   -0.0069910411579115605   -5.848591311917958E-4    -0.029617099197336055    -0.017008020799667723    0.012329147750133348     -0.024938226147801668    0.024938226147801668     -0.012329147750133348    0.017008020799667723     0.029617099197336055
0.14235338335533856       -0.0029336545904853524   -0.007050901319480617    -6.227627875464838E-4    -0.02951106428959851     -0.01777644592765711     0.012794343627285229     -0.02452896198922662     0.02452896198922662      -0.012794343627285229    0.01777644592765711      0.02951106428959851
0.14359029800695178       -0.00290305432783224     -0.00705717393333132     -6.278895375436829E-4    -0.02948918860583319     -0.01787697129450424     0.012853854994154767     -0.024466072305483706    0.024466072305483706     -0.012853854994154767    0.01787697129450424      0.02948918860583319
0.14429821843668017       -0.0028855409520637987   -0.007060763923543594    -6.308237182136215E-4    -0.029476668547612887    -0.017934504739357697    0.012887914993648716     -0.02443007880190389     0.02443007880190389      -0.012887914993648716    0.017934504739357697     0.029476668547612887
0.14961971745686034       -0.002770456751556101    -0.007085353560828278    -6.535139870633085E-4    -0.029411030133850293    -0.01832920312762589     0.013101091231119414     -0.024182918237343805    0.024182918237343805     -0.013101091231119414    0.01832920312762589      0.029411030133850293
0.153692589822888         -0.0026683690692522162   -0.007098253678530753    -6.702912615698775E-4    -0.029312664220376226    -0.018639187943367358    0.01327685785080833      -0.023950334127817184    0.023950334127817184     -0.01327685785080833     0.018639187943367358     0.029312664220376226
0.15567286621313647       -0.002619454409590287    -0.007104158920197287    -6.782276023874241E-4    -0.029264295989322155    -0.018786478350961002    0.013360657531861605     -0.023838475170222737    0.023838475170222737     -0.013360657531861605    0.018786478350961002     0.029264295989322155
0.15840439516778262       -0.002557536622052321    -0.007114980751339522    -6.885028462714194E-4    -0.029214026883208913    -0.01898388039499962     0.013475857624828263     -0.02370600411303753     0.02370600411303753      -0.013475857624828263    0.01898388039499962      0.029214026883208913
0.1618718711596767        -0.0024789148488477374   -0.007126408084875536    -7.019396074652939E-4    -0.029144812382183284    -0.019229152986792324    0.013613636127069971     -0.023529295522460903    0.023529295522460903     -0.013613636127069971    0.019229152986792324     0.029144812382183284
0.16474002863513876       -0.0024123805833561884   -0.0071297995857126616   -7.129209071300049E-4    -0.029065843552370404    -0.019416321218945643    0.0137129539619056       -0.023362476295330337    0.023362476295330337     -0.0137129539619056      0.019416321218945643     0.029065843552370404
0.1651368330723281        -0.0024031726883671526   -0.007129949183309413    -7.144945337240889E-4    -0.029054171061558925    -0.019441480308090307    0.013725524038297594     -0.023338214791766187    0.023338214791766187     -0.013725524038297594    0.019441480308090307     0.029054171061558925
0.16910728461737237       -0.002311037879732505    -0.007131446066795307    -7.302403459081933E-4    -0.028937375343483722    -0.019693223824553702    0.01385130105728815      -0.02309545257621816     0.02309545257621816      -0.01385130105728815     0.019693223824553702     0.028937375343483722
0.17331351534822034       -0.0022067542066146343   -0.007134171494916209    -7.466123334136615E-4    -0.028802472231632563    -0.019975455405174022    0.014002556737864724     -0.022829573564323247    0.022829573564323247     -0.014002556737864724    0.019975455405174022     0.028802472231632563
0.17412402486249293       -0.0021868939262326783   -0.007135323098086507    -7.495354702318335E-4    -0.028777899027652234    -0.020030323322721515    0.014034039560866842     -0.022781615265797542    0.022781615265797542     -0.014034039560866842    0.020030323322721515     0.028777899027652234
0.1749219329879916        -0.002168646889096447    -0.0071346527764306914   -7.524013014304607E-4    -0.028750857313206833    -0.020076269756821037    0.014057059345377347     -0.022731646901763124    0.022731646901763124     -0.014057059345377347    0.020076269756821037     0.028750857313206833
0.1754716696784335        -0.002156075183802216    -0.00713419094329875     -7.543757800805104E-4    -0.028732226317822747    -0.02010792558261388     0.014072919341969787     -0.022697220077178636    0.022697220077178636     -0.014072919341969787    0.02010792558261388      0.028732226317822747
0.18238365401989318       -0.0019945295483586147   -0.00712901195218784     -7.782721922400959E-4    -0.028489183722241157    -0.02051106552880669     0.014284887990885918     -0.02226300618432036     0.02226300618432036      -0.014284887990885918    0.02051106552880669      0.028489183722241157
0.18291386114919328       -0.001981289159981837    -0.007128038225355836    -7.801888449350839E-4    -0.028467448375771538    -0.02054229173584419     0.01430078097636351      -0.02222593761629084     0.02222593761629084      -0.01430078097636351     0.02054229173584419      0.028467448375771538
0.18339901150825097       -0.00196917393402564     -0.007127147245404671    -7.81942621321286E-4     -0.02844756008955046     -0.020570864353447897    0.014315323382877602     -0.022192019118980146    0.022192019118980146     -0.014315323382877602    0.020570864353447897     0.02844756008955046
0.18444368662680383       -0.0019442551483504775   -0.007124443586834325    -7.855294463446368E-4    -0.028403958842582504    -0.02062693824918059     0.014342702678423486     -0.022119723271825376    0.022119723271825376     -0.014342702678423486    0.02062693824918059      0.028403958842582504
0.18546886276095298       -0.0019198014747514114   -0.0071217903923703405   -7.890493228555299E-4    -0.028361171418035992    -0.020681965519030343    0.014369570936186092     -0.02204877683519172     0.02204877683519172      -0.014369570936186092    0.020681965519030343     0.028361171418035992
0.18979680954250544       -0.0018149451212918543   -0.007111474748804188    -8.045117667789715E-4    -0.02818236155611218     -0.020922581070944767    0.014486486936712981     -0.021746267421880384    0.021746267421880384     -0.014486486936712981    0.020922581070944767     0.02818236155611218
0.19293444087355266       -0.001743435596435324    -0.007100885687556308    -8.158109154409579E-4    -0.028052771917303432    -0.021079029531562134    0.014552542208034461     -0.02152628459377574     0.02152628459377574      -0.014552542208034461    0.021079029531562134     0.028052771917303432
0.19372118804769642       -0.001725480653486961    -0.00709844840791434     -8.184638200956472E-4    -0.028020161811099554    -0.02111823919715171     0.014570528636386524     -0.021472451250334354    0.021472451250334354     -0.014570528636386524    0.02111823919715171      0.028020161811099554
0.195660023422414         -0.001681233048051059    -0.007092442051433844    -8.250015561807654E-4    -0.02793979847512674     -0.0212148662829225      0.014614853833476368     -0.02133978602568059     0.02133978602568059      -0.014614853833476368    0.0212148662829225       0.02793979847512674
0.19869827034236887       -0.0016085373515524653   -0.007081478396186413    -8.354713387599222E-4    -0.027803395246703878    -0.021369245840494024    0.014685475130414634     -0.021119624536624478    0.021119624536624478     -0.014685475130414634    0.021369245840494024     0.027803395246703878
0.20275845137769383       -0.0015163687918130578   -0.007061205287993846    -8.482344435759336E-4    -0.02760929122191141     -0.021543816054659173    0.0147579405060517       -0.020823415673303914    0.020823415673303914     -0.0147579405060517      0.021543816054659173     0.02760929122191141
0.20387155606066715       -0.0014915059390208205   -0.007056944934661781    -8.518674831221276E-4    -0.027561316614515514    -0.021595292858432227    0.014780352993455198     -0.020746376749538466    0.020746376749538466     -0.014780352993455198    0.021595292858432227     0.027561316614515514
0.20420706152293466       -0.0014842503470539532   -0.0070551425965459345   -8.529849723237246E-4    -0.02754586837304063     -0.021608866984824816    0.01478498720623501      -0.020721988594450805    0.020721988594450805     -0.01478498720623501     0.021608866984824816     0.02754586837304063
0.20433107364963699       -0.001481396596465188    -0.0070544430487869      -8.533898387234113E-4    -0.027539681694184744    -0.02161409530832399     0.014786976598536691     -0.02071256298439742     0.02071256298439742      -0.014786976598536691    0.02161409530832399      0.027539681694184744
0.214038537763594         -0.0012580097215902962   -0.006999683607533821    -8.850821106843579E-4    -0.027055398708519512    -0.022023359822158327    0.014942702936683446     -0.01997474182304462     0.01997474182304462      -0.014942702936683446    0.022023359822158327     0.027055398708519512
0.21431575357329669       -0.0012524559692175525   -0.006997818960312406    -8.858782015948014E-4    -0.027041881625751555    -0.022032057748881343    0.014945032136122919     -0.019954856012993114    0.019954856012993114     -0.014945032136122919    0.022032057748881343     0.027041881625751555
0.21510345618607876       -0.0012366751042681592   -0.006992520606333967    -8.881402763691113E-4    -0.02700347313301469     -0.022056772715942047    0.014951650504989146     -0.019898350922061766    0.019898350922061766     -0.014951650504989146    0.022056772715942047     0.02700347313301469
0.2206370682954301        -0.0011187746539978872   -0.006949469427971286    -9.03691686683645E-4     -0.02670072433864424     -0.022225625722652687    0.014996092229183518     -0.019471190845175047    0.019471190845175047     -0.014996092229183518    0.022225625722652687     0.02670072433864424
0.22171521398663516       -0.00109580342653595     -0.006941081517590906    -9.067216580100492E-4    -0.02664173803788484     -0.02225852433174104     0.015004751067660634     -0.019387964773804413    0.019387964773804413     -0.015004751067660634    0.02225852433174104      0.02664173803788484
0.22445663901443205       -0.0010318783876313731   -0.006919263439097734    -9.151185842358863E-4    -0.02648202142949952     -0.022354507878974025    0.015033559205086925     -0.0191610727556124      0.0191610727556124       -0.015033559205086925    0.022354507878974025     0.02648202142949952
0.22633535631149054       -9.936646189389433E-4    -0.0069022722472846226   -9.201347280914677E-4    -0.026374684892097655    -0.022400026416341878    0.015038948591610125     -0.01901360706736588     0.01901360706736588      -0.015038948591610125    0.022400026416341878     0.026374684892097655
0.22733735397808386       -9.712313395923021E-4    -0.00689137734564363     -9.228228956164467E-4    -0.026307886298581315    -0.022422960940212098    0.015040377775280517     -0.018925303133649707    0.018925303133649707     -0.015040377775280517    0.022422960940212098     0.026307886298581315
0.22936158011297922       -9.291490166741641E-4    -0.006873392011327671    -9.283986365143831E-4    -0.026192068613388905    -0.022475472546692243    0.01504828345457717      -0.018764879521273807    0.018764879521273807     -0.01504828345457717     0.022475472546692243     0.026192068613388905
0.23487474026527025       -8.145340624313596E-4    -0.0068244073515769475   -9.43584663415271E-4     -0.025876628833254665    -0.022618492583529225    0.015069815276207044     -0.018327951525932466    0.018327951525932466     -0.015069815276207044    0.022618492583529225     0.025876628833254665
0.23805532519533923       -7.524999102789403E-4    -0.0067903203558655305   -9.513158014881576E-4    -0.025681224094107124    -0.022671224452991363    0.015060698041086088     -0.018070697682201833    0.018070697682201833     -0.015060698041086088    0.022671224452991363     0.025681224094107124
0.2428303856276532        -6.593670960614239E-4    -0.00673914503181138     -9.629226764247732E-4    -0.025387859993256105    -0.022750391609010406    0.015047010197612204     -0.017684478581857888    0.017684478581857888     -0.015047010197612204    0.022750391609010406     0.025387859993256105