% Model:              Cylinder_slice_potential_3.mph
% Version:            COMSOL 6.2.0.339
% Date:               May 16 2024, 16:03
% Dimension:          1
% Nodes:              1009
% Expressions:        11
% Description:        Line graph
% Arc length (m)          Magnetic scalar potential Magnetic scalar potential Magnetic scalar potential Magnetic scalar potential Magnetic scalar potential Magnetic scalar potential Magnetic scalar potential Magnetic scalar potential Magnetic scalar potential Magnetic scalar potential Magnetic scalar potential
0                         0.001922676489180872     -0.01459423303196629     -2.180139318554136E-7    -0.03993821817326457     -0.047628924129987996    0.04762718001853321      -0.03993647406180969     0.03993647406180969      -0.04762718001853321     0.047628924129987996     0.03993821817326457
1.4691808690808802E-4     0.0019134688179389058    -0.014595754076019297    8.495624621062906E-6     -0.03992634209369584     -0.04758021736545141     0.04764818236241997      -0.039994307090664316    0.039994307090664316     -0.04764818236241997     0.04758021736545141      0.03992634209369584
6.861832228508889E-4      0.0018793784969460443    -0.01460025725267753     4.073344960759814E-5     -0.039879080965710106    -0.04739659495349425     0.04772246255035508      -0.04020494856257087     0.04020494856257087      -0.04772246255035508     0.04739659495349425      0.039879080965710106
7.258403545846992E-4      0.0018768715216933272    -0.014600588412728594    4.310419376866354E-5     -0.03987560541972448     -0.047383091506497735    0.04772792505664711      -0.040220438969873755    0.040220438969873755     -0.04772792505664711     0.047383091506497735     0.03987560541972448
0.004351306065875048      0.001648818183440124     -0.01462962925828282     2.590020694279969E-4     -0.03955524313025623     -0.04615051586401668     0.04822253241944072      -0.04162725968568017     0.04162725968568017      -0.04822253241944072     0.04615051586401668      0.03955524313025623
0.0063986952302337655     0.00152163070064151      -0.014645931341774221    3.807635508248868E-4     -0.0393714784207401      -0.0454580012233061      0.04850410962990524      -0.042417586827339156    0.042417586827339156     -0.04850410962990524     0.0454580012233061       0.0393714784207401
0.0064802810570168765     0.0015165624429202976    -0.014646580958849024    3.856155893640343E-4     -0.03936415563325034     -0.04543040540493149     0.04851533011984382      -0.042449080348162575    0.042449080348162575     -0.04851533011984382     0.04543040540493149      0.03936415563325034
0.006634597634554525      0.0015069566358575182    -0.014647840455852455    3.948257765682351E-4     -0.039350304989569394    -0.045378131532999424    0.04853673774554536      -0.04250891120211524     0.04250891120211524      -0.04853673774554536     0.045378131532999424     0.039350304989569394
0.010227350527375785      0.0012833170783753353    -0.014677163692375605    6.092546295749354E-4     -0.03902783840207641     -0.044161106715577714    0.04903514375217725      -0.04390187543867585     0.04390187543867585      -0.04903514375217725     0.044161106715577714     0.03902783840207641
0.01065772325728665       0.0012562933209777256    -0.014679814507075497    6.351438071368254E-4     -0.038986281650723736    -0.04401145493463461     0.04909260539172926      -0.0440674321078183      0.0440674321078183       -0.04909260539172926     0.04401145493463461      0.038986281650723736
0.014885612059660634      9.876152012115787E-4     -0.01470851857936366     8.858754341362803E-4     -0.038606823599122715    -0.04255728440396898     0.049644287877059275     -0.045693827072212895    0.045693827072212895     -0.049644287877059275    0.04255728440396898      0.038606823599122715
0.023146844883134437      4.636778436093725E-4     -0.014762837629542084    0.0013760440984906018    -0.03785698080744511     -0.039711692181882544    0.05072004496980741      -0.04886533359536985     0.04886533359536985      -0.05072004496980741     0.039711692181882544     0.03785698080744511
0.02618728696761337       2.747867431857035E-4     -0.014777798210473127    0.0015586601146591827    -0.03754918068641126     -0.03864832765915402     0.051117608576427526     -0.05001846160368463     0.05001846160368463      -0.051117608576427526    0.03864832765915402      0.03754918068641126
0.02723833159502201       2.094893388118168E-4     -0.014782969905171986    0.0016217882971207309    -0.03744277784940942     -0.03828073520465663     0.05125504158162251      -0.05041708422637517     0.05041708422637517      -0.05125504158162251     0.03828073520465663      0.03744277784940942
0.029722529326528767      5.2234478343312946E-5    -0.01479538962263599     0.0017688748961813855    -0.037206200326495804    -0.037415138239869       0.05156613740932013      -0.05135719949594681     0.05135719949594681      -0.05156613740932013     0.037415138239869        0.037206200326495804
0.03435439530112248       -2.450580995394292E-4    -0.014815376731280378    0.002043668636841065     -0.03676157184555575     -0.035781339447397975    0.05213068854212653      -0.053110920940284176    0.053110920940284176     -0.05213068854212653     0.035781339447397975     0.03676157184555575
0.03605666025720595       -3.531588332216469E-4    -0.014822696365655495    0.0021471911695317225    -0.03658564208528289     -0.035173006752396256    0.05235053610865008      -0.0537631714415366      0.0537631714415366       -0.05235053610865008     0.035173006752396256     0.03658564208528289
0.03678463405077444       -3.9938812373541046E-4   -0.014825826608091931    0.0021914625918936247    -0.03651040570417212     -0.034912853209230425    0.05244455394437946      -0.05404210643932103     0.05404210643932103      -0.05244455394437946     0.034912853209230425     0.03651040570417212
0.039227394487745246      -5.565016333331165E-4    -0.01483772586399508     0.0023355474949910728    -0.036283990878687195    -0.03405798434535467     0.0527423643052833       -0.05496837083861569     0.05496837083861569      -0.0527423643052833      0.03405798434535467      0.036283990878687195
0.04002990011894053       -6.081172049138347E-4    -0.01484163505612247     0.002382882855575722     -0.036209608155892206    -0.03377713933623681     0.05284020218084263      -0.05527267100049791     0.05527267100049791      -0.05284020218084263     0.03377713933623681      0.036209608155892206
0.04019070639592228       -6.183932429019598E-4    -0.014842118789331792    0.00239222664359651      -0.03619423627941326     -0.03372066330780537     0.0528584764565775       -0.05533204942818527     0.05533204942818527      -0.0528584764565775      0.03372066330780537      0.03619423627941326
0.04031774295835921       -6.264573767160141E-4    -0.014842502542519256    0.002399798998824255     -0.03618122638569278     -0.033675396878828666    0.052873788869422754     -0.05537961837628675     0.05537961837628675      -0.052873788869422754    0.033675396878828666     0.03618122638569278
0.04123654328781393       -6.845754306262292E-4    -0.014843900103272224    0.0024547893481522815    -0.03608169377846002     -0.033343392055955046    0.05298170684117334      -0.0557200085636782      0.0557200085636782       -0.05298170684117334     0.033343392055955046     0.03608169377846002
0.0439696089750046        -8.574535346671524E-4    -0.014848057290875731    0.0026183637745613936    -0.03578562384371594     -0.03235580970504728     0.05330271990153848      -0.056732534040207026    0.056732534040207026     -0.05330271990153848     0.03235580970504728      0.03578562384371594
0.04865685273394781       -0.0011556685282862538   -0.014857224880742759    0.0028963106465615665    -0.03529776911255452     -0.03067509499940947     0.053845580171902045     -0.058468254285047       0.058468254285047        -0.053845580171902045    0.03067509499940947      0.03529776911255452
0.05076472543186404       -0.0012901536722744464   -0.014861414506889105    0.0030200530347199114    -0.035084338726336574    -0.02992372403723875     0.05408414831499808      -0.059244763004095806    0.059244763004095806     -0.05408414831499808     0.02992372403723875      0.035084338726336574
0.051812366118046425      -0.0013607307176705784   -0.01486435143124711     0.003081769068008025     -0.0349874394570504      -0.029544516586368055    0.05419866913043229      -0.05964159200111453     0.05964159200111453      -0.05419866913043229     0.029544516586368055     0.0349874394570504
0.05325396982794244       -0.0014505738740860084   -0.014864617719909526    0.0031677154566518866    -0.03482413908129305     -0.029021843584948984    0.05436356723816411      -0.06016586273450809     0.06016586273450809      -0.05436356723816411     0.029021843584948984     0.03482413908129305
0.055422083293732674      -0.0015896961012784646   -0.014864201901450626    0.0032966624544177583    -0.03458534808923778     -0.028226563684123886    0.054599863319465994     -0.06095864772457978     0.06095864772457978      -0.054599863319465994    0.028226563684123886     0.03458534808923778
0.056864789075236635      -0.0016826008957555353   -0.014865899435295154    0.003382278362420498     -0.03443378664771455     -0.027703383064692378    0.0547616099640564       -0.06149201354707847     0.06149201354707847      -0.0547616099640564      0.027703383064692378     0.03443378664771455
0.06193403849914312       -0.002008499546898551    -0.014872805941133927    0.003683750296987722     -0.03390041572924801     -0.02586641754165377     0.05533641991755559      -0.06337041810514973     0.06337041810514973      -0.05533641991755559     0.02586641754165377      0.03390041572924801
0.06372664280339885       -0.0021209943928444486   -0.014872472685129708    0.003790603383541643     -0.03369699330691146     -0.025213015735533636    0.055537842803866824     -0.06402182037524456     0.06402182037524456      -0.055537842803866824    0.025213015735533636     0.03369699330691146
0.06596866130627248       -0.0022666145298937826   -0.014872950469076792    0.0039234429153284       -0.03345830880570436     -0.024391850686129198    0.055779394008756436     -0.06484585212833151     0.06484585212833151      -0.055779394008756436    0.024391850686129198     0.03345830880570436
0.0661458817449294        -0.0022783791474834      -0.014872791758839536    0.003933975459252502     -0.033439231734475425    -0.024325715144541786    0.05579751881856185      -0.0649110354084954      0.0649110354084954       -0.05579751881856185     0.024325715144541786     0.033439231734475425
0.06771035601852347       -0.0023822353488172658   -0.014871390689724574    0.004026955107252683     -0.03327082233779755     -0.023741880942528444    0.05595752180054997      -0.06548646319581897     0.06548646319581897      -0.05595752180054997     0.023741880942528444     0.03327082233779755
0.06815444170872184       -0.002409590202109396    -0.014871606364974378    0.004053126807423205     -0.03322149226944913     -0.023583131461011504    0.056008145920397205     -0.06564650672883474     0.06564650672883474      -0.056008145920397205    0.023583131461011504     0.03322149226944913
0.06828382631526833       -0.0024175600534431744   -0.014871669202075312    0.0040607519464537015    -0.03320711992729751     -0.02353687971352477     0.056022895285154424     -0.06569313549892705     0.06569313549892705      -0.056022895285154424    0.02353687971352477      0.03320711992729751
0.06970142287660509       -0.0025049349534556177   -0.014867673024699393    0.004146030702956931     -0.033028766169181704    -0.0230090263553592      0.05617727197901469      -0.0661970117928371      0.0661970117928371       -0.05617727197901469     0.0230090263553592       0.033028766169181704
0.07137240929255732       -0.0026138851811510566   -0.014870970767242574    0.004247200469378071     -0.03285188078651757     -0.02239634006191331     0.05637394381693793      -0.06682948454154208     0.06682948454154208      -0.05637394381693793     0.02239634006191331      0.03285188078651757
0.07145238081653871       -0.0026189959460174183   -0.014870909073383735    0.004251932283228914     -0.032842989979270404    -0.022367006195200698    0.05638246446103207      -0.06685844824510166     0.06685844824510166      -0.05638246446103207     0.022367006195200698     0.032842989979270404
0.07176733029136272       -0.0026391235193144345   -0.014870666106294027    0.00427056744501019      -0.032807975577470214    -0.022251481500212437    0.05641602106029402      -0.06697251513755167     0.06697251513755167      -0.05641602106029402     0.022251481500212437     0.032807975577470214
0.0743822365008527        -0.002811306663517425    -0.014866575122056002    0.004425762612552865     -0.03251928824299143     -0.021274061588921693    0.056680162489344654     -0.06792538914341431     0.06792538914341431      -0.056680162489344654    0.021274061588921693     0.03251928824299143
0.07647156150342356       -0.0029394567092810506   -0.014859476474853715    0.004550733360401297     -0.03225440940151809     -0.020496582564393854    0.056902449447604274     -0.06866027628472843     0.06866027628472843      -0.056902449447604274    0.020496582564393854     0.03225440940151809
0.07728019801560468       -0.002991592385597967    -0.014858063764341803    0.004598560331525348     -0.03216313473811998     -0.02019676519572808     0.05698524784793091      -0.06895161739032271     0.06895161739032271      -0.05698524784793091     0.02019676519572808      0.03216313473811998
0.07903875341242035       -0.003104972716034016    -0.01485499151907778     0.004702570448452531     -0.03196463819549128     -0.01954474733135519     0.057165310918975476     -0.06958520178311148     0.06958520178311148      -0.057165310918975476    0.01954474733135519      0.03196463819549128
0.07906305012510027       -0.0031065858508066767   -0.01485492675830295     0.004704010800578953     -0.03196190877420642     -0.019535565370979675    0.05716765177561135      -0.06959399517883799     0.06959399517883799      -0.05716765177561135     0.019535565370979675     0.03196190877420642
0.07910695036706127       -0.003109302484398028    -0.014854729272791216    0.004706633643304149     -0.03195625821395313     -0.019519048276360987    0.05717211742279423      -0.06960932736038629     0.06960932736038629      -0.05717211742279423     0.019519048276360987     0.03195625821395313
0.08082704159613686       -0.003219702369448197    -0.014849356352827737    0.0048103573120660235    -0.03174604454911553     -0.01886723507132271     0.05735009356785094      -0.07022890304564368     0.07022890304564368      -0.05735009356785094     0.01886723507132271      0.03174604454911553
0.0815707137142898        -0.0032674331612639446   -0.014847033400008508    0.0048552016779617735    -0.031655159810706344    -0.018585427165650537    0.05742704058934477      -0.07049677323440048     0.07049677323440048      -0.05742704058934477     0.018585427165650537     0.031655159810706344
0.08379161819834664       -0.0034068374600124155   -0.01484035780423418     0.00498929921203306      -0.03137755148459516     -0.01775020164454546     0.05766459534080999      -0.0712919451808596      0.0712919451808596       -0.05766459534080999     0.01775020164454546      0.03137755148459516
0.08575307050825488       -0.003534962136963613    -0.014837453728617413    0.005108940363201919     -0.031146524006971807    -0.017006675459117323    0.05787819836473273      -0.07201804691258713     0.07201804691258713      -0.05787819836473273     0.017006675459117323     0.031146524006971807
0.08773602787060694       -0.0036644915525787395   -0.014834517813175565    0.00522989324100177      -0.030912963580677126    -0.016254997370362137    0.05809414329837634      -0.07275210950869127     0.07275210950869127      -0.05809414329837634     0.016254997370362137     0.030912963580677126
0.0903879503291142        -0.003836715037970271    -0.01482381650280827     0.00538762057064099      -0.03059439730180143     -0.015247537149920314    0.05834850171504827      -0.07369536186692932     0.07369536186692932      -0.05834850171504827     0.015247537149920314     0.03059439730180143
0.0934292410238586        -0.004029437594650127    -0.01480437401566913     0.005566211321734997     -0.030207151949367683    -0.014089401570767143    0.05861909214464715      -0.07473684252324762     0.07473684252324762      -0.05861909214464715     0.014089401570767143     0.030207151949367683
0.09466303203882868       -0.004107621294493279    -0.014796486586170068    0.005638662029731215     -0.030050054228571935    -0.013619569050598787    0.058728865288448534     -0.07515935046642161     0.07515935046642161      -0.058728865288448534    0.013619569050598787     0.030050054228571935
0.09563483565702201       -0.004168333317645986    -0.014791832680667088    0.005697746264227974     -0.02992117962038137     -0.0132478463497974      0.05882981646362121      -0.07550314973420512     0.07550314973420512      -0.05882981646362121     0.0132478463497974       0.02992117962038137
0.09898456143974693       -0.004379975982855279    -0.014771546744097664    0.005900689860512844     -0.029471832755952197    -0.011951928824531052    0.059157447708633834     -0.07667735164005492     0.07667735164005492      -0.059157447708633834    0.011951928824531052     0.029471832755952197
0.09924422483333546       -0.004396382057931569    -0.014769974222800875    0.005916421602851323     -0.02943700037286049     -0.011851472141134183    0.05918284496394481      -0.07676837319567105     0.07676837319567105      -0.05918284496394481     0.011851472141134183     0.02943700037286049
0.10484888865460289       -0.004759464835723382    -0.014737082312241377    0.006252582655854983     -0.02871984598475099     -0.00968198664185743     0.05970264788869733      -0.07874050723159083     0.07874050723159083      -0.05970264788869733     0.00968198664185743      0.02871984598475099
0.10747805311569733       -0.004930285653738291    -0.014722304626689931    0.0064104810578361395    -0.02838556095620184     -0.008664418341248642    0.0599482668039378       -0.07966940941889093     0.07966940941889093      -0.0599482668039378      0.008664418341248642     0.02838556095620184
0.10775535036336756       -0.004948498202456964    -0.01472034032662163     0.006427056709250875     -0.02834979054777534     -0.008555797737947455    0.059972251411954496     -0.07976624422178233     0.07976624422178233      -0.059972251411954496    0.008555797737947455     0.02834979054777534
0.11075242179606398       -0.00513728127500321     -0.014696869887654358    0.00661022475354987      -0.02792427319877004     -0.007375148098757164    0.060256946127156166     -0.08080607122716896     0.08080607122716896      -0.060256946127156166    0.007375148098757164     0.02792427319877004
0.11135565271752443       -0.005174644867993291    -0.014694335449862584    0.0066466817079625165    -0.027845569253724292    -0.007146989781751094    0.06032044344545129      -0.08101902291742441     0.08101902291742441      -0.06032044344545129     0.007146989781751094     0.027845569253724292
0.1193212705743727        -0.005686268135173526    -0.014634206484550674    0.007128682264204834     -0.02676042666717976     -0.00401535412648562     0.06104481224012435      -0.08378988478081842     0.08378988478081842      -0.06104481224012435     0.00401535412648562      0.02676042666717976
0.11965299789650687       -0.0057086887433549964   -0.014630035221348373    0.0071487138735349684    -0.02671262765661526     -0.0038778726831952405   0.061067583671475044     -0.08390233864489499     0.08390233864489499      -0.061067583671475044    0.0038778726831952405    0.02671262765661526
0.12084766868790643       -0.005789433511520285    -0.014615012984774765    0.00722085498756042      -0.02654048602712321     -0.0033827519810420356   0.06114959188152545      -0.08430732592760656     0.08430732592760656      -0.06114959188152545     0.0033827519810420356    0.02654048602712321
0.12273400718694841       -0.005911190992030788    -0.014593933277419473    0.007335994664425494     -0.026260203158618045    -0.0026154391904948653   0.06130339650589887      -0.08494816047402197     0.08494816047402197      -0.06130339650589887     0.0026154391904948653    0.026260203158618045
0.12598739904337647       -0.0061189671324913715   -0.014561681802606447    0.00753502765520609      -0.025782869051977752    -0.0013070005220122314   0.06158722176366099      -0.08606309029362645     0.08606309029362645      -0.06158722176366099     0.0013070005220122314    0.025782869051977752
0.13252530434808035       -0.0065365069773225945   -0.014496870338888052    0.007934997564660581     -0.02482363471266704     0.001322393196623371     0.06215758732066133      -0.08830361522995167     0.08830361522995167      -0.06215758732066133     -0.001322393196623371    0.02482363471266704
0.13393998701244536       -0.006626977872030452    -0.01448351090600771     0.008021311185377666     -0.024619243720573388    0.0018886677675484546    0.06228182171547293      -0.08878973320359469     0.08878973320359469      -0.06228182171547293     -0.0018886677675484546   0.024619243720573388
0.13416580442042597       -0.006641701868701829    -0.01448059363002246     0.008035143384692314     -0.024584611088701795    0.001982196386105555     0.06229895069143303      -0.0888657581662403      0.0888657581662403       -0.06229895069143303     -0.001982196386105555    0.024584611088701795
0.14449860432584835       -0.007296636744240065    -0.014362830360219545    0.0086742298082481       -0.022984845336146382    0.0062017016408139145    0.06319213682517093      -0.09237868380213118     0.09237868380213118      -0.06319213682517093     -0.0062017016408139145   0.022984845336146382
0.14479094312076532       -0.007315326586421674    -0.01435901213144679     0.008692273501064416     -0.022938595562926073    0.00632271078276066      0.06321547722575471      -0.09247678357144139     0.09247678357144139      -0.06321547722575471     -0.00632271078276066     0.022938595562926073
0.146522695378223         -0.007426041198892875    -0.014336393763951       0.008799160463420549     -0.022664621835956578    0.007039542959614959     0.06335374074774948      -0.09305790554332095     0.09305790554332095      -0.06335374074774948     -0.007039542959614959    0.022664621835956578
0.14762217500361366       -0.007494883462226752    -0.014320720766567447    0.008868205403053022     -0.02247910761194377     0.0075004262369632695    0.06344521698746096      -0.09342475083636793     0.09342475083636793      -0.06344521698746096     -0.0075004262369632695   0.02247910761194377
0.14996102222963395       -0.007642008093704833    -0.014290534441533592    0.009014520498871817     -0.022097537516523182    0.008470494858296177     0.06364566913267841      -0.09421370150749771     0.09421370150749771      -0.06364566913267841     -0.008470494858296177    0.022097537516523182
0.1506212609080481        -0.007682921891038736    -0.014282744160996234    0.009056645049399317     -0.02198749606746892     0.008744191496686055     0.06370896889850852      -0.09444065646266345     0.09444065646266345      -0.06370896889850852     -0.008744191496686055    0.02198749606746892
0.15371988791383467       -0.007880662943072748    -0.014242093738491161    0.009249094230015404     -0.021491230181557394    0.010031421590733633     0.06396133224938964      -0.0954839840216806      0.0954839840216806       -0.06396133224938964     -0.010031421590733633    0.021491230181557394
0.1548615921157891        -0.00795310400166604     -0.014224809765340348    0.009319230896625851     -0.021303713712849733    0.010508702293814459     0.06404514487919241      -0.09585756088585654     0.09585756088585654      -0.06404514487919241     -0.010508702293814459    0.021303713712849733
0.15542344013341955       -0.007988753222450214    -0.01421630408932116     0.009353746095072902     -0.021211434332572325    0.01074357855722856      0.0640863902033547       -0.09604140309315552     0.09604140309315552      -0.0640863902033547      -0.01074357855722856     0.021211434332572325
0.1567479671941022        -0.008071553865807763    -0.01419771906725919     0.009436760726531298     -0.020989222027267936    0.011296993435963151     0.06419709237628728      -0.0964833078395183      0.0964833078395183       -0.06419709237628728     -0.011296993435963151    0.020989222027267936
0.1569817212297618        -0.008086166617116948    -0.01419443916151867     0.009451411242702858     -0.020950005747978506    0.011394660720489324     0.06421662922113358      -0.09656129568960135     0.09656129568960135      -0.06421662922113358     -0.011394660720489324    0.020950005747978506
0.15795605431385923       -0.008145925614835339    -0.014180009361057209    0.009513347332454488     -0.020778489983024378    0.011805212476317013     0.06430156618331895      -0.09688526864266028     0.09688526864266028      -0.06430156618331895     -0.011805212476317013    0.020778489983024378
0.15960912996449766       -0.008248766586219852    -0.014155342005793542    0.009617958675883479     -0.02049172448628644     0.012503341858593003     0.06444032754847488      -0.09743539389335426     0.09743539389335426      -0.06444032754847488     -0.012503341858593003    0.02049172448628644
0.16017007711013959       -0.008283664172020545    -0.014146971498055227    0.009653457011652688     -0.020394414791596045    0.012740241896486171     0.06448741419673538      -0.09762207088481753     0.09762207088481753      -0.06448741419673538     -0.012740241896486171    0.020394414791596045
0.16223015980834157       -0.00841565163929641     -0.014114399558483488    0.009783905981732554     -0.020038878027113093    0.013623728530072585     0.0646475193237879       -0.09831012588097351     0.09831012588097351      -0.0646475193237879      -0.013623728530072585    0.020038878027113093
0.1631910995453919        -0.008477218100782983    -0.014099206153347567    0.00984475480062533      -0.01987303545910737     0.014035836944024601     0.06472220146097808      -0.09863107386410999     0.09863107386410999      -0.06472220146097808     -0.014035836944024601    0.01987303545910737
0.1665879075344939        -0.008692083720072352    -0.014043901320676122    0.01005895391297302      -0.019280055750281008    0.015488279130008435     0.06498335217377578      -0.09975168705406516     0.09975168705406516      -0.06498335217377578     -0.015488279130008435    0.019280055750281008
0.16801716186269214       -0.008778579629254598    -0.014021338517339634    0.01015055335945957      -0.019018961372689845    0.016095357144328585     0.06510906973134803      -0.1002233882483664      0.1002233882483664       -0.06510906973134803     -0.016095357144328585    0.019018961372689845
0.17125736441489678       -0.008980688314522776    -0.01396730715039171     0.010358342117864907     -0.01842992960876108     0.017492823649330056     0.06537391329358924      -0.1012966665516803      0.1012966665516803       -0.06537391329358924     -0.017492823649330056    0.01842992960876108
0.1715540478725705        -0.008999194041434956    -0.01396235986314325     0.010377367930701044     -0.018375995949495513    0.017620780216244348     0.06539816322936405      -0.10139493939510384     0.10139493939510384      -0.06539816322936405     -0.017620780216244348    0.018375995949495513
0.1739833167756417        -0.009151825767743503    -0.013918958119839921    0.01053243012768295      -0.017930805384274995    0.01867649768669906      0.0655829433347646       -0.10219024640573857     0.10219024640573857      -0.0655829433347646      -0.01867649768669906     0.017930805384274995
0.17586424661524463       -0.00926993368486594     -0.013886840792610159    0.010652384821259984     -0.017590850462522453    0.01948888427694134      0.06573019429313859      -0.10280992903260232     0.10280992903260232      -0.06573019429313859     -0.01948888427694134     0.017590850462522453
0.17630348703461335       -0.009297911887313694    -0.013878998979302233    0.010680222002743838     -0.01751193270155877     0.01967971484769605      0.0657620611742547       -0.10295370872350945     0.10295370872350945      -0.0657620611742547      -0.01967971484769605     0.01751193270155877
0.17776806068521436       -0.00938685003923315     -0.013858555935313398    0.010774232622983831     -0.017252437392471207    0.02029496276446143      0.06589889821940925      -0.10344629837634181     0.10344629837634181      -0.06589889821940925     -0.02029496276446143     0.017252437392471207
0.18052580731809195       -0.009554317813140983    -0.013820062319302459    0.010951251696975204     -0.016763815796288557    0.021453455456275417     0.06615655811952625      -0.10437382937209015     0.10437382937209015      -0.06615655811952625     -0.021453455456275417    0.016763815796288557
0.18171358645631547       -0.009627171081770526    -0.013799356934253312    0.01102812025157565      -0.016539931959998425    0.02196875236708373      0.06625620964552152      -0.10476489397260358     0.10476489397260358      -0.06625620964552152     -0.02196875236708373     0.016539931959998425
0.18578528593362809       -0.009885730226938784    -0.013704808686890592    0.011294822197244599     -0.015706597725570988    0.02383632318218421      0.06652225439577263      -0.10606517530352773     0.10606517530352773      -0.06652225439577263     -0.02383632318218421     0.015706597725570988
0.1881670024955681        -0.010035585280208993    -0.013666870633879787    0.011447907358205122     -0.015280153029236883    0.02486218809159914      0.0667210707740419       -0.10686341189487782     0.10686341189487782      -0.0667210707740419      -0.02486218809159914     0.015280153029236883