% Model:              Cylinder_slice_potential_6.mph
% Version:            COMSOL 6.2.0.415
% Date:               May 21 2024, 17:44
% Dimension:          1
% Nodes:              806
% Expressions:        11
% Description:        Line graph
% Arc length (m)          Magnetic scalar potential Magnetic scalar potential Magnetic scalar potential Magnetic scalar potential Magnetic scalar potential Magnetic scalar potential Magnetic scalar potential Magnetic scalar potential Magnetic scalar potential Magnetic scalar potential Magnetic scalar potential
0                         3.791556553400403E-6     -0.02417662599365898     -3.823529067585433E-7    -0.07252382427949716     -0.07253899050571079     0.07253593168245667      -0.07252076545624307     0.07252076545624307      -0.07253593168245667     0.07253899050571079      0.07252382427949716
0.0054787848879428        1.3216513843599954E-4    -0.024247174982261307    -1.2062029991466676E-4   -0.07295967586957057     -0.07348833642331459     0.07252337402399722      -0.07199471347025321     0.07199471347025321      -0.07252337402399722     0.07348833642331459      0.07295967586957057
0.012308382648613558      2.921896594359261E-4     -0.024335118061690534    -2.705033178517332E-4    -0.07350298813760667     -0.07467174677535039     0.07250772023253652      -0.07133896159479278     0.07133896159479278      -0.07250772023253652     0.07467174677535039      0.07350298813760667
0.012473992069211985      2.956799435272818E-4     -0.02433723612251621     -2.740225617890184E-4    -0.07351643872765012     -0.07469915850175927     0.07250697800744711      -0.07132425823333795     0.07132425823333795      -0.07250697800744711     0.07469915850175927      0.07351643872765012
0.01259092734026138       2.984020189937693E-4     -0.02433853928069052     -2.7658377603426924E-4   -0.07352514890822107     -0.07471875698419618     0.072506086775922        -0.0713124786999469      0.0713124786999469       -0.072506086775922       0.07471875698419618      0.07352514890822107
0.013269715576060364      3.130741556557391E-4     -0.024347070544487807    -2.911671523475703E-4    -0.07357973193154219     -0.07483202855416518     0.07250269133538459      -0.07125039471276161     0.07125039471276161      -0.07250269133538459     0.07483202855416518      0.07357973193154219
0.01574027887177452       3.65997837108234E-4      -0.024377093923609802    -3.4468211642058803E-4   -0.07377801456229525     -0.07524200591072822     0.07248454897936349      -0.07102055763093053     0.07102055763093053      -0.07248454897936349     0.07524200591072822      0.07377801456229525
0.016473443428878326      3.817034729604839E-4     -0.02438600366394915     -3.6056322134960715E-4   -0.07383685693132486     -0.07536367082316682     0.07247916505236995      -0.07095235116052798     0.07095235116052798      -0.07247916505236995     0.07536367082316682      0.07383685693132486
0.016794657822246702      3.8874601658294794E-4    -0.02439065650907683     -3.6756922576545905E-4   -0.07386475439712639     -0.0754197384634582      0.07247918465733454      -0.07092420059100268     0.07092420059100268      -0.07247918465733454     0.0754197384634582       0.07386475439712639
0.018406253606208053      4.240798429763095E-4     -0.02441400074814584     -4.0271972777317273E-4   -0.07400472146957757     -0.07570104084148283     0.07247928301929743      -0.07078296364739214     0.07078296364739214      -0.07247928301929743     0.07570104084148283      0.07400472146957757
0.01873144868103469       4.337313953434534E-4     -0.02441743548165877     -4.102697225242609E-4    -0.07402592254438642     -0.07576084812576026     0.07247869034556617      -0.0707437647641923      0.0707437647641923       -0.07247869034556617     0.07576084812576026      0.07402592254438642
0.01919653136128559       4.419875409843342E-4     -0.024425362065343056    -4.1942340336002066E-4   -0.07406980472750055     -0.07583775489143793     0.07248236766455775      -0.07071441750062037     0.07071441750062037      -0.07248236766455775     0.07583775489143793      0.07406980472750055
0.01978461888407918       4.603438409316331E-4     -0.02443436766850034     -4.343551471089447E-4    -0.0741198359120735      -0.07596121127580006     0.07248637009892846      -0.07064499473520192     0.07064499473520192      -0.07248637009892846     0.07596121127580006      0.0741198359120735
0.02000924181929394       4.6616679245516877E-4    -0.024437281630603096    -4.394710331337405E-4    -0.07413739543943386     -0.07600206260925459     0.07248629434418462      -0.07062162717436393     0.07062162717436393      -0.07248629434418462     0.07600206260925459      0.07413739543943386
0.021595190010048407      5.08818466788108E-4      -0.02446003417125117     -4.760581974705148E-4    -0.07426669837005932     -0.0763019722372118      0.07249350665744765      -0.07045823279029519     0.07045823279029519      -0.07249350665744765     0.0763019722372118       0.07426669837005932
0.02227922096122381       5.26228379306412E-4      -0.02447082776226586     -4.919429911239887E-4    -0.07432779849268067     -0.07643271200990637     0.07249716808091444      -0.07039225456368875     0.07039225456368875      -0.07249716808091444     0.07643271200990637      0.07432779849268067
0.02379390407271861       5.643928397262283E-4     -0.024492610332569883    -5.260362489094491E-4    -0.07445319031389497     -0.07671076167279993     0.07250247168152432      -0.07024490032261936     0.07024490032261936      -0.07250247168152432     0.07671076167279993      0.07445319031389497
0.02671612494525488       6.390845759661935E-4     -0.02453497134162103     -5.91970626995421E-4     -0.07469462738091236     -0.07725096568477718     0.0725152006688138       -0.06995886236494898     0.06995886236494898      -0.0725152006688138      0.07725096568477718      0.07469462738091236
0.02912369725147012       7.068532562223676E-4     -0.024568241337905056    -6.483474289450475E-4    -0.0748844072170506      -0.07771182024194012     0.0725250408103797       -0.0696976277854902      0.0696976277854902       -0.0725250408103797      0.07771182024194012      0.0748844072170506
0.032594820453454174      8.019273716407887E-4     -0.02461745878270586     -7.281586146262331E-4    -0.0751611560633409      -0.0783688655499041      0.07254359663289422      -0.06933588714633103     0.06933588714633103      -0.07254359663289422     0.0783688655499041       0.0751611560633409
0.03272352456442279       8.054525791281117E-4     -0.02461928369271586     -7.311178952684689E-4    -0.07517141750096519     -0.07839322781747768     0.07254428465532992      -0.06932247433881743     0.06932247433881743      -0.07254428465532992     0.07839322781747768      0.07517141750096519
0.034987032675272145      8.707586637094658E-4     -0.024656387658387194    -7.848955909805682E-4    -0.07536722801166487     -0.0788502626665028      0.07257109793865822      -0.06908806328382033     0.06908806328382033      -0.07257109793865822     0.0788502626665028       0.07536722801166487
0.03616509352575202       9.040387258273114E-4     -0.024676891248036223    -8.127662100199239E-4    -0.0754736611325337      -0.079089816035843       0.07258768635568358      -0.06897153145237431     0.06897153145237431      -0.07258768635568358     0.079089816035843        0.0754736611325337
0.03632462573971513       9.085454896233641E-4     -0.02467966783045942     -8.165404306453352E-4    -0.07548807423471285     -0.07912225619320634     0.07258993274804364      -0.06895575078955014     0.06895575078955014      -0.07258993274804364     0.07912225619320634      0.07548807423471285
0.037412557395972726      9.393785231320478E-4     -0.024696875273452025    -8.424654300106385E-4    -0.07558173049413451     -0.07933924458666275     0.07259952114657761      -0.06884200705404939     0.06884200705404939      -0.07259952114657761     0.07933924458666275      0.07558173049413451
0.0374697367209831        9.409990404080255E-4     -0.024697779659283447    -8.43827991671636E-4     -0.0755866528637208      -0.07935064902535295     0.07260002509197984      -0.06883602893034771     0.06883602893034771      -0.07260002509197984     0.07935064902535295      0.0755866528637208
0.03931808004415256       9.930100161309257E-4     -0.024727332424143315    -8.863055811051282E-4    -0.07574119956458857     -0.07971323962911232     0.07262279498027126      -0.06865075491574754     0.06865075491574754      -0.07262279498027126     0.07971323962911232      0.07574119956458857
0.04030517869098959       0.0010216432552134147    -0.024745027514287338    -9.085540874612821E-4    -0.07582601238228029     -0.079912585403134       0.07264415270344371      -0.06855757968259002     0.06855757968259002      -0.07264415270344371     0.079912585403134        0.07582601238228029
0.04217261012587067       0.0010758127254243618    -0.024778503770874157    -9.506446731203388E-4    -0.07598646455425506     -0.08028971545595256     0.07268455807098981      -0.06838130716929235     0.06838130716929235      -0.07268455807098981     0.08028971545595256      0.07598646455425506
0.04543059645468906       0.001173900526951962     -0.024833307227902196    -0.0010293443450678896   -0.07626949801007418     -0.08096510011788209     0.07273034535733891      -0.06803474324953106     0.06803474324953106      -0.07273034535733891     0.08096510011788209      0.07626949801007418
0.047016995423999286      0.0012226116110161717    -0.024859401249432013    -0.0010680396775027872   -0.07640513923627482     -0.08129558568033957     0.0727512682603172       -0.06786082181625251     0.06786082181625251      -0.0727512682603172      0.08129558568033957      0.07640513923627482
0.05043870002800369       0.0013306474127926995    -0.02492231327855881     -0.0011499887656610916   -0.07670560007273536     -0.08202818972390621     0.07282827959861743      -0.06750568994744661     0.06750568994744661      -0.07282827959861743     0.08202818972390621      0.07670560007273536
0.054250108449726275      0.0014509875976984104    -0.02499239046680028     -0.0012412711763032946   -0.07704028091021715     -0.08284423130101086     0.07291406189058447      -0.0671101114997908      0.0671101114997908       -0.07291406189058447     0.08284423130101086      0.07704028091021715
0.05453656716966297       0.0014598642963019187    -0.024997604681301504    -0.0012482735501115824   -0.07706617965174696     -0.08290563683695469     0.072919448436062        -0.0670799912508543      0.0670799912508543       -0.072919448436062       0.08290563683695469      0.07706617965174696
0.05479513676968123       0.0014679259262396181    -0.025002647069965103    -0.0012543119964469067   -0.07708933734320367     -0.08296104104816218     0.07292654507658689      -0.06705484137162838     0.06705484137162838      -0.07292654507658689     0.08296104104816218      0.07708933734320367
0.05483276500567738       0.0014690995794253163    -0.02500335428250222     -0.0012551850740840202   -0.07709260398499211     -0.08296900230269343     0.0729275217100212       -0.06705112339231992     0.06705112339231992      -0.0729275217100212      0.08296900230269343      0.07709260398499211
0.05484724800941453       0.001469584094484467     -0.025003623935470228    -0.0012555282048753373   -0.07709381643694309     -0.082972152814881       0.07292792717587826      -0.06704959079794036     0.06704959079794036      -0.07292792717587826     0.082972152814881        0.07709381643694309
0.054961819842721985      0.0014733106432676993    -0.02500558903248096     -0.0012580095814213879   -0.07710218413659303     -0.08299542670966388     0.07293135005829272      -0.0670381074852219      0.0670381074852219       -0.07293135005829272     0.08299542670966388      0.07710218413659303
0.0551651587134294        0.0014799244173458795    -0.02500907663144362     -0.0012624134587977734   -0.07711703489483018     -0.08303673256421375     0.07293742489383151      -0.06701772722444797     0.06701772722444797      -0.07293742489383151     0.08303673256421375      0.07711703489483018
0.061050899234226436      0.0016741556803317197    -0.025116094501511078    -0.0014049609075434653   -0.07761981577404362     -0.08431643849537057     0.0730767512350228       -0.0663801285136959      0.0663801285136959       -0.0730767512350228      0.08431643849537057      0.07761981577404362
0.06151574646569605       0.001690008205090224     -0.02512619510310099     -0.0014173939775330823   -0.07766814480925481     -0.08442817762961578     0.07308902580935109      -0.06632899298899016     0.06632899298899016      -0.07308902580935109     0.08442817762961578      0.07766814480925481
0.0644630802673032        0.0017877844770896446    -0.025185913807252425    -0.0014902297649579525   -0.07794309152740975     -0.0850942294357684      0.07317239131610476      -0.06602125340774613     0.06602125340774613      -0.07317239131610476     0.0850942294357684       0.07794309152740975
0.06453138714502656       0.0017901674243435937    -0.025187114833978997    -0.0014917466216333186   -0.07794799613978304     -0.08510866583715748     0.07317469286409091      -0.06601402316671649     0.06601402316671649      -0.07317469286409091     0.08510866583715748      0.07794799613978304
0.0653838943036652        0.0018199079081771168    -0.025202104303798843    -0.0015106778217917494   -0.07800920838220926     -0.0852888400149178      0.07320341744058377      -0.06592378580787527     0.06592378580787527      -0.07320341744058377     0.0852888400149178       0.07800920838220926
0.06746370056697648       0.0018934505716923131    -0.02524081722687397     -0.0015621900373447438   -0.07818431068661622     -0.08575811297338554     0.07326059267462756      -0.06568679038785827     0.06568679038785827      -0.07326059267462756     0.08575811297338554      0.07818431068661622
0.06818424492197754       0.0019197235557757652    -0.02525678449823153     -0.001581857474573667    -0.07825833628143769     -0.08593723050454079     0.07328237070795146      -0.06560347648484835     0.06560347648484835      -0.07328237070795146     0.08593723050454079      0.07825833628143769
0.06907527706446306       0.001947699853527202     -0.025276177504659415    -0.0016053893017624102   -0.07835469001397345     -0.0861454894280823      0.07330237501398303      -0.06551157559987417     0.06551157559987417      -0.07330237501398303     0.0861454894280823       0.07835469001397345
0.0709930804794433        0.0020140291092070003    -0.025316177953851764    -0.0016523204921068985   -0.07852975761156886     -0.0865858740483969      0.07336731011154171      -0.06531119367471366     0.06531119367471366      -0.07336731011154171     0.0865858740483969       0.07852975761156886
0.07283380413593507       0.0020762927663150067    -0.025354838672279893    -0.0016980118081804756   -0.07870397771693152     -0.08700914878219163     0.0734250543167478       -0.06511988325148774     0.06511988325148774      -0.0734250543167478      0.08700914878219163      0.07870397771693152
0.07293970817954622       0.002079875038447219     -0.02535706297487741     -0.001700640608605265    -0.07871400128215883     -0.08703350143594775     0.07342837656710563      -0.06510887641331671     0.06510887641331671      -0.07342837656710563     0.08703350143594775      0.07871400128215883
0.0731911552148893        0.0020892727236591557    -0.025362245220809494    -0.0017070848185463232   -0.07873652948929544     -0.0870936203839321      0.07343694183556151      -0.06507985094092486     0.06507985094092486      -0.07343694183556151     0.0870936203839321       0.07873652948929544
0.07508331832599704       0.0021599912082241675    -0.02540124211958779     -0.0017555781177974598   -0.07890605641350484     -0.08754602124640157     0.07350139630402187      -0.06486143147112516     0.06486143147112516      -0.07350139630402187     0.08754602124640157      0.07890605641350484
0.07767613190671          0.0022605475791621942    -0.025455760064888634    -0.001821690952649073    -0.07913294884693778     -0.08817513916358659     0.07360161154239402      -0.06455942122574518     0.06455942122574518      -0.07360161154239402     0.08817513916358659      0.07913294884693778
0.07909123365398908       0.0023162530017972046    -0.02548365042694288     -0.001856470061527442    -0.07924432552334398     -0.08850933753053283     0.07365757703831328      -0.06439256503112442     0.06439256503112442      -0.07365757703831328     0.08850933753053283      0.07924432552334398
0.07979880228042038       0.002343456638823597     -0.025497698294623353    -0.0018746382514601959   -0.07930473461206361     -0.08867856116735805     0.07368145515567646      -0.06430762860038203     0.06430762860038203      -0.07368145515567646     0.08867856116735805      0.07930473461206361
0.0822090219429339        0.0024412376068575553    -0.025551244941165688    -0.0019373373625777108   -0.07952060906009276     -0.08928555948752301     0.07378686058690133      -0.06402191015947106     0.06402191015947106      -0.07378686058690133     0.08928555948752301      0.07952060906009276
0.08324041485414922       0.002482475898181024     -0.025574454314738142    -0.001964234835763262    -0.07961535049090539     -0.0895452540836295      0.07383137539752342      -0.06390147180479928     0.06390147180479928      -0.07383137539752342     0.0895452540836295       0.07961535049090539
0.09141335963886321       0.00279919878030444      -0.025751823060832416    -0.002173769954846142    -0.0803521514412729      -0.09154894656249069     0.07415878692372155      -0.06296199180250377     0.06296199180250377      -0.07415878692372155     0.09154894656249069      0.0803521514412729
0.09411547873697361       0.0029096486540859928    -0.025816848804725852    -0.002243956364701833    -0.08060707456481288     -0.09224566918115687     0.07429401826354218      -0.06265542364719821     0.06265542364719821      -0.07429401826354218     0.09224566918115687      0.08060707456481288
0.102611421351821         0.003265395201886144     -0.026013164347121573    -0.0024721683918943094   -0.08139737620516967     -0.09445895701271426     0.07468160987755974      -0.06162002907001517     0.06162002907001517      -0.07468160987755974     0.09445895701271426      0.08139737620516967
0.10302791699730604       0.0032834513643497775    -0.026022802418155657    -0.0024832809294696866   -0.08143462824364615     -0.0945684337010453      0.07470218626528777      -0.06156838080788864     0.06156838080788864      -0.07470218626528777     0.0945684337010453       0.08143462824364615
0.10333189781120747       0.0032967845019526774    -0.026030767711345996    -0.0024913746590276955   -0.08146423276624341     -0.09465137077405415     0.07472037350183254      -0.061533235494021815    0.061533235494021815     -0.07472037350183254     0.09465137077405415      0.08146423276624341
0.10637905776262879       0.0034302332629201158    -0.026106918327865766    -0.002572074495072172    -0.08174858643804572     -0.09546951948972622     0.0748929235291488       -0.06117199047746831     0.06117199047746831      -0.0748929235291488      0.09546951948972622      0.08174858643804572
0.10701450646557852       0.0034580702427762103    -0.026122791617324358    -0.0025889092779681614   -0.0818078714782933      -0.09564015244939815     0.0749288782256528       -0.061096597254547955    0.061096597254547955     -0.0749288782256528      0.09564015244939815      0.0818078714782933
0.10707564348109637       0.0034607865205197714    -0.02612422539362736     -0.0025906230378068993   -0.08181359529107012     -0.09565674137314922     0.07493175707069398      -0.061088610988614886    0.061088610988614886     -0.07493175707069398     0.09565674137314922      0.08181359529107012
0.11314983362158117       0.0037373788615555196    -0.02626530053490418     -0.0027556431863718445   -0.08234371662708886     -0.09729323207331093     0.07524808658233614      -0.06029857113611405     0.06029857113611405      -0.07524808658233614     0.09729323207331093      0.08234371662708886
0.11355959884535816       0.0037567203924106208    -0.0262753693762532      -0.00276652883636136     -0.08237878268938378     -0.09740566425902626     0.07527343356813535      -0.06024655199849285     0.06024655199849285      -0.07527343356813535     0.09740566425902626      0.08237878268938378
0.1137917239142076        0.0037676770425138445    -0.026281073204581604    -0.0027726953729698012   -0.08239864702059632     -0.0974693551906517      0.07528779220689324      -0.060217084036837856    0.060217084036837856     -0.07528779220689324     0.0974693551906517       0.08239864702059632
0.11723287141418434       0.0039295955081153355    -0.026370952858618648    -0.0028653718054891704   -0.08271515478158192     -0.09843353681404327     0.07551056237012987      -0.059792180337668525    0.059792180337668525     -0.07551056237012987     0.09843353681404327      0.08271515478158192
0.1185034411245717        0.003992800024807977     -0.026402524554653695    -0.002899658439399309    -0.08282060737194236     -0.09879180747117425     0.07559453995597974      -0.05962333985674783     0.05962333985674783      -0.07559453995597974     0.09879180747117425      0.08282060737194236
0.12027196679057331       0.004078103526263402     -0.026446701643702674    -0.00294886060241349     -0.08297934028823517     -0.09929175439328877     0.07570086957398081      -0.059388455468927195    0.059388455468927195     -0.07570086957398081     0.09929175439328877      0.08297934028823517
0.12115589546260994       0.004119950325431183     -0.026467752802283966    -0.0029728964905065534   -0.08305494371801574     -0.09953474501974047     0.07575157309568799      -0.05927177179396326     0.05927177179396326      -0.07575157309568799     0.09953474501974047      0.08305494371801574
0.12199693265493493       0.004159766563543206     -0.026487782480999564    -0.002995766068648248    -0.08312687859050526     -0.09976594484467807     0.07579981629549204      -0.059160750041319224    0.059160750041319224     -0.07579981629549204     0.09976594484467807      0.08312687859050526
0.12257883249535728       0.00418957744058523      -0.026502144932397637    -0.0030114713923896012   -0.08317316548558083     -0.09993147524792176     0.0758397041088049       -0.059081394346463985    0.059081394346463985     -0.0758397041088049      0.09993147524792176      0.08317316548558083
0.12310379393288037       0.0042160156016548475    -0.026515005139252385    -0.0030259180026400577   -0.08321665622500768     -0.10008071863162706     0.07587337461050656      -0.05900931220388718     0.05900931220388718      -0.07587337461050656     0.10008071863162706      0.08321665622500768
0.12499609496225272       0.004311315857694223     -0.0265613616540928      -0.0030779929428049295   -0.08337342501810967     -0.10061868844888655     0.07599474490644709      -0.05874948147567018     0.05874948147567018      -0.07599474490644709     0.10061868844888655      0.08337342501810967
0.12602238315982767       0.004363115903740877     -0.026587953048398345    -0.0031064026856678457   -0.08346323808038465     -0.10091570169534816     0.07606448021000536      -0.05861201659504186     0.05861201659504186      -0.07606448021000536     0.10091570169534816      0.08346323808038465
0.13072961523692844       0.00460011197848558      -0.026710395190749858    -0.003237366535167454    -0.08388042775594821     -0.10228087566989055     0.07638194338855088      -0.05798149547460856     0.05798149547460856      -0.07638194338855088     0.10228087566989055      0.08388042775594821
0.13264399107305586       0.00469790707661681      -0.0267564703298764      -0.003291615043564844    -0.08404005701065495     -0.1028316853171222      0.07649876496860342      -0.057707136662136185    0.057707136662136185     -0.07649876496860342     0.1028316853171222       0.08404005701065495
0.13804333049544099       0.004986256958217116     -0.026894810109512283    -0.0034426081340135353   -0.08448234894815675     -0.10442737678102525     0.07688651170891693      -0.05694148387604846     0.05694148387604846      -0.07688651170891693     0.10442737678102525      0.08448234894815675
0.13814408837277153       0.0049915944182785665    -0.02689752791423547     -0.0034454158931289097   -0.0844910584786649      -0.10445743615177919     0.07689410900674788      -0.05692773133363361     0.05692773133363361      -0.07689410900674788     0.10445743615177919      0.0844910584786649
0.13861488972175479       0.005016534239001777     -0.026910227131049562    -0.0034585354309175217   -0.0845317546388152      -0.10459789159482233     0.07692960814748215      -0.056863471191475015    0.056863471191475015     -0.07692960814748215     0.10459789159482233      0.0845317546388152
0.1419739865110897        0.005192865947089633     -0.02699753010394439     -0.0035533506920854547   -0.0848202611859957      -0.10559172497435423     0.0771649194376706       -0.05639345564931206     0.05639345564931206      -0.0771649194376706      0.10559172497435425      0.0848202611859957
0.1422695040073697        0.005209373185430996     -0.027005812183952163    -0.0035617417065394895   -0.08484565700715244     -0.10568314974887642     0.07718921609656051      -0.056351723354836514    0.056351723354836514     -0.07718921609656051     0.10568314974887642      0.08484565700715244
0.14531850547825412       0.005382500825282169     -0.027087473242097607    -0.0036492050547989024   -0.08509423829492406     -0.10662424159605277     0.07743060115766152      -0.05590059785653283     0.05590059785653283      -0.07743060115766152     0.10662424159605277      0.08509423829492406
0.1478133399879213        0.005524534013132729     -0.027151143524208735    -0.003721818353987195    -0.08529163596230949     -0.10738977201484042     0.07761522518294285      -0.05551708913041192     0.05551708913041192      -0.07761522518294285     0.10738977201484042      0.08529163596230949
0.1513143187676275        0.005723847905397737     -0.02724049145718994     -0.0038237159422230497   -0.08556864232966652     -0.10846403395125748     0.07787430641347308      -0.054978914791882126    0.054978914791882126     -0.07787430641347308     0.10846403395125748      0.08556864232966652
0.15165278907896212       0.005743194480837639     -0.027248894356904276    -0.0038333744860644557   -0.08559379205329534     -0.1085665699766459      0.07789957408813027      -0.05492679616477971     0.05492679616477971      -0.07789957408813027     0.1085665699766459       0.08559379205329534
0.15176824071226247       0.005750069410263105     -0.0272522409063797      -0.0038365666278386903   -0.08560285040996762     -0.10860312805102006     0.07791059502831053      -0.05491031738725811     0.05491031738725811      -0.07791059502831053     0.10860312805102006      0.08560285040996762
0.15385106005885005       0.005874097417528522     -0.027312614742526248    -0.003894154852919304    -0.08576626880419888     -0.10926265847431298     0.07810941965095855      -0.054613029980844455    0.054613029980844455     -0.07810941965095855     0.10926265847431298      0.08576626880419888
0.15948654073843843       0.006214887162499904     -0.02745480879389634     -0.004057073463321681    -0.08616294590997593     -0.11102249455997554     0.0785659068534021       -0.053706358203402485    0.053706358203402485     -0.0785659068534021      0.11102249455997554      0.08616294590997593
0.1611735855854237        0.006316888177449549     -0.027496823481229327    -0.004106184967781067    -0.08628143395991315     -0.11154898666971134     0.07869950692746282      -0.053431954217664605    0.053431954217664605     -0.07869950692746282     0.11154898666971134      0.08628143395991315
0.16155178738876264       0.00634065840034139      -0.027507815839778668    -0.00411685943679098     -0.08630956846581714     -0.11167220206718269     0.07873732657285487      -0.05337469297148929     0.05337469297148929      -0.07873732657285487     0.11167220206718269      0.08630956846581714
0.16157042307479796       0.006341829665012505     -0.02750835748220582     -0.004117385415385758    -0.08631095477813548     -0.11167827343818548     0.07873919011509944      -0.0533718714550494      0.0533718714550494       -0.07873919011509944     0.11167827343818548      0.08631095477813548
0.16165322987728387       0.006347110641386096     -0.027510453333435898    -0.004119826936025855    -0.08631644646163891     -0.11170488902718329     0.07874627353897647      -0.05335783097343206     0.05335783097343206      -0.07874627353897647     0.11170488902718329      0.08631644646163891
0.16222014342173438       0.006383265364720846     -0.02752480199095937     -0.004136542122198662    -0.08635404373223107     -0.11188710519111444     0.07879476821352517      -0.05326170675464176     0.05326170675464176      -0.07879476821352517     0.11188710519111444      0.08635404373223107
0.1625084566994787        0.006401656648901766     -0.02753208094134523     -0.004145163865093391    -0.08637358498660572     -0.11198021158221276     0.07881890066146566      -0.05321227406585857     0.05321227406585857      -0.07881890066146566     0.11198021158221276      0.08637358498660572
0.16327092029267967       0.0064502853392046245    -0.02755136332007813     -0.004167347515979473    -0.08642290934574304     -0.11222405070256153     0.07888527057472575      -0.05308412921790723     0.05308412921790723      -0.07888527057472575     0.11222405070256153      0.08642290934574304
0.16425283450711495       0.00651220802031106      -0.027576400030421104    -0.0041960334426799925   -0.08648891782136114     -0.11253774990260539     0.07896948236116545      -0.05292065027992119     0.05292065027992119      -0.07896948236116545     0.11253774990260539      0.08648891782136114