% Model:              Cylinder_slice_potential.mph
% Version:            COMSOL 6.2.0.339
% Date:               May 8 2024, 04:47
% Dimension:          1
% Nodes:              699
% Expressions:        11
% Description:        Line graph
% Arc length (m)          Magnetic scalar potential Magnetic scalar potential Magnetic scalar potential Magnetic scalar potential Magnetic scalar potential Magnetic scalar potential Magnetic scalar potential Magnetic scalar potential Magnetic scalar potential Magnetic scalar potential Magnetic scalar potential
0                         -0.0052225983689615256   -0.004848758346696041    -1.6846776895139186E-7   -0.024992145649086996    -0.004101752173240896    0.0041004044310892765    -0.02499079790693536     0.02499079790693536      -0.0041004044310892765   0.004101752173240896     0.024992145649086996
0.0014404545217151438     -0.005196797903217971    -0.004815032990761395    6.272416752779178E-6     -0.024813605111709033    -0.004026413498837147    0.004076592832859372     -0.024863784445731243    0.024863784445731243     -0.004076592832859372    0.004026413498837147     0.024813605111709033
0.009375017408455921      -0.005065957246901776    -0.004635779718225576    3.704877240247865E-5     -0.023891058558870384    -0.0036272295712632815   0.003923619750483101     -0.02418744873809019     0.02418744873809019      -0.003923619750483101    0.0036272295712632815    0.023891058558870384
0.013730504875708845      -0.00499453611094594     -0.004534509045312116    5.357989645130915E-5     -0.02337827977202301     -0.0034001353282392495   0.0038287744998497125    -0.023806918943633456    0.023806918943633456     -0.0038287744998497125   0.0034001353282392495    0.02337827977202301
0.014817865254189284      -0.004973700068958564    -0.004511416446662634    5.761283078253664E-5     -0.023251198154774902    -0.003356397878940642    0.003817300525200925     -0.02371210080103517     0.02371210080103517      -0.003817300525200925    0.003356397878940642     0.023251198154774902
0.016003283861929337      -0.004950191833979869    -0.0044865211441892745   6.209843663983167E-5     -0.02311155335396825     -0.003310786018048774    0.0038075735111674173    -0.023608340847086882    0.023608340847086882     -0.0038075735111674173   0.003310786018048774     0.02311155335396825
0.01620452122005165       -0.004946482322663431    -0.004481455268750248    6.28673676917928E-5      -0.023085860980810446    -0.0032999316901567302   0.003802870631691062     -0.02358879992234477     0.02358879992234477      -0.003802870631691062    0.0032999316901567302    0.023085860980810446
0.016651188208706338      -0.004938415810837544    -0.004472703962926274    6.425618537307437E-5     -0.02303791876896162     -0.003284255525611454    0.003798305008596038     -0.023551968251946196    0.023551968251946196     -0.003798305008596038    0.003284255525611454     0.02303791876896162
0.0183327924399926        -0.004909582594993281    -0.004437712111051403    7.056907962562986E-5     -0.02285002520463827     -0.003211694824665144    0.0037762474616701725    -0.023414577841643285    0.023414577841643285     -0.0037762474616701725   0.003211694824665144     0.02285002520463827
0.022039385549805352      -0.004852279950389415    -0.0043625455446653135   8.355090076086368E-5     -0.022457992931731334    -0.003048873130173675    0.003717280336260574     -0.023126400137818217    0.023126400137818217     -0.003717280336260574    0.003048873130173675     0.022457992931731334
0.02209508599964897       -0.004851406887627677    -0.0043614016671280524   8.374718325076283E-5     -0.02245203004363648     -0.0030464024931257704   0.003716379959131863     -0.023122007509642557    0.023122007509642557     -0.003716379959131863    0.0030464024931257704    0.02245203004363648
0.028282294890130365      -0.0047544270302559595   -0.004234339690285208    1.0555025252505559E-4    -0.021789672121267343    -0.002771964000243499    0.003616366020443933     -0.022634074141467758    0.022634074141467758     -0.003616366020443933    0.002771964000243499     0.021789672121267343
0.030646039859418883      -0.0047158056497116265   -0.004187486822375698    1.1335657420612739E-4    -0.02154064546972586     -0.002677422870879346    0.0035842754645283555    -0.02244749806337485     0.02244749806337485      -0.0035842754645283555   0.002677422870879346     0.02154064546972586
0.03066130283175975       -0.004715556267028354    -0.004187184288034522    1.1340698052045073E-4    -0.021539037476078493    -0.002676812407965069    0.003584068252128665     -0.022446293320242068    0.022446293320242068     -0.003584068252128665    0.002676812407965069     0.021539037476078493
0.03381190528940396       -0.004661521130408859    -0.0041267201735165696   1.2317519012335147E-4    -0.021210502020874045    -0.002564417499238603    0.0035498190202254047    -0.022195903541860827    0.022195903541860827     -0.0035498190202254047   0.002564417499238603     0.021210502020874045
0.0362956947750603        -0.004622862703139639    -0.004079687160056314    1.3026425821215906E-4    -0.020963729853599608    -0.002472279041041042    0.003514393106738305     -0.02200584391929685     0.02200584391929685      -0.003514393106738305    0.002472279041041042     0.020963729853599608
0.039510715207131425      -0.00457282318318031     -0.004018807564531074    1.394403574272813E-4     -0.020644307630244742    -0.0023530148975234957   0.003468537756941738     -0.02175983048966296     0.02175983048966296      -0.003468537756941738    0.0023530148975234957    0.020644307630244742
0.04137652272234464       -0.004545867111841953    -0.003984633286644126    1.4552068153449082E-4    -0.02046355135747835     -0.002280082910110526    0.0034442483623864442    -0.021627716809754248    0.021627716809754248     -0.0034442483623864442   0.002280082910110526     0.02046355135747835
0.04720623306359397       -0.004457767267589217    -0.0038820228044230774   1.6322810629162366E-4    -0.019908690523281196    -0.0020776214529243213   0.0033834463032573012    -0.021214515373614157    0.021214515373614157     -0.0033834463032573012   0.0020776214529243213    0.019908690523281196
0.04874539521336384       -0.00443450711610022     -0.0038549315492561135   1.6790322672826546E-4    -0.019762195973055743    -0.0020241675086548573   0.003367393322480972     -0.021105421786881837    0.021105421786881837     -0.003367393322480972    0.0020241675086548573    0.019762195973055743
0.04903938070496009       -0.0044297104520954035   -0.0038497101746887007   1.687585704038378E-4     -0.019733517146641583    -0.0020146753382599587   0.003364743901490652     -0.021083585709872257    0.021083585709872257     -0.003364743901490652    0.0020146753382599587    0.019733517146641583
0.04929101813881535       -0.004425951611128064    -0.003845599845801445    1.6946140357951777E-4    -0.019710857145342417    -0.002007050700830152    0.003362741929466285     -0.02106654837397853     0.02106654837397853      -0.003362741929466285    0.002007050700830152     0.019710857145342417
0.054470750554558925      -0.004352949428196267    -0.0037583340598753654   1.8297783282914432E-4    -0.01924898970470208     -0.0018371919919170014   0.0033010146545501473    -0.0207128123673352      0.0207128123673352       -0.0033010146545501473   0.0018371919919170014    0.01924898970470208
0.0624829156686308        -0.004234674913972958    -0.0036269374746539756   2.0234586473379796E-4    -0.018540778792972678    -0.0016020791370808377   0.0032208460549512123    -0.020159545710843035    0.020159545710843035     -0.0032208460549512123   0.0016020791370808377    0.018540778792972678
0.06344984280002001       -0.004221071083703616    -0.0036117417639621972   2.0497538773008603E-4    -0.018457465908373508    -0.0015731815735590344   0.003212984675399714     -0.020097269010214164    0.020097269010214164     -0.003212984675399714    0.0015731815735590344    0.018457465908373508
0.06468712019827735       -0.004203663658494849    -0.00359229737277795     2.0834011839684357E-4    -0.0183508589617362      -0.0015362043277567959   0.0032029252749315356    -0.02001757990891092     0.02001757990891092      -0.0032029252749315356   0.0015362043277567959    0.0183508589617362
0.06626731147921897       -0.004182921435392943    -0.0035668579552218744   2.1234083330717176E-4    -0.01821705340322285     -0.0014853676616510673   0.003184094328108433     -0.019915780069680197    0.019915780069680197     -0.003184094328108433    0.0014853676616510673    0.01821705340322285
0.0692495369111982        -0.004145104793800989    -0.0035224956477280245   2.1941980441076E-4       -0.01798001731314304     -0.0013995981379390727   0.0031549565732251436    -0.019735375748429092    0.019735375748429092     -0.0031549565732251436   0.0013995981379390727    0.01798001731314304
0.06931496605856294       -0.004144229922672387    -0.003521501286982504    2.1957177490917624E-4    -0.01797467660665561     -0.001397756915966049    0.0031543311152394497    -0.019731250805928996    0.019731250805928996     -0.0031543311152394497   0.001397756915966049     0.01797467660665561
0.06954984322285074       -0.004140937502026146    -0.003517874153176754    2.2010219225005424E-4    -0.017955088694582365    -0.0013913386864777683   0.003152156224478193     -0.019715906232582774    0.019715906232582774     -0.003152156224478193    0.0013913386864777683    0.017955088694582365
0.07601802564774299       -0.004050268928842598    -0.0034179880565175513   2.347091300191141E-4     -0.017415665507161424    -0.0012145897917910159   0.0030922628319439206    -0.01929333854731431     0.01929333854731431      -0.0030922628319439206   0.0012145897917910159    0.017415665507161424
0.07960444362002261       -0.004001594401506145    -0.0033669916777156915   2.4224134273778255E-4    -0.017135198465208265    -0.0011288208591836708   0.0030667516010859227    -0.019073129207110497    0.019073129207110497     -0.0030667516010859227   0.0011288208591836708    0.017135198465208265
0.08342466579572666       -0.00395282822652529     -0.0033110133871838343   2.496008717750143E-4     -0.016840293127502057    -0.0010289802214008808   0.003025787195600987     -0.018837100101702142    0.018837100101702142     -0.003025787195600987    0.0010289802214008808    0.016840293127502057
0.08434148553041655       -0.003941124773283189    -0.003297579089618574    2.513670940388056E-4     -0.016769518439266908    -0.001005019346134138    0.0030159560984445743    -0.018780455191577325    0.018780455191577325     -0.0030159560984445743   0.001005019346134138     0.016769518439266908
0.085768739816267         -0.003923196166594745    -0.0032772570980859972   2.544764713115647E-4     -0.016660257742201253    -9.67473075822261E-4     0.0030032848463147697    -0.018696069512693744    0.018696069512693744     -0.0030032848463147697   9.67473075822261E-4      0.016660257742201253
0.08773003995208523       -0.0038975190828955024   -0.0032511265403288806   2.5828988502130535E-4    -0.016515258246692453    -9.251819151104317E-4    0.0029915009952808666    -0.018581577326862872    0.018581577326862872     -0.0029915009952808666   9.251819151104317E-4     0.016515258246692453
0.09010712226690766       -0.0038666775031762227   -0.0032190880030396876   2.6273534233873575E-4    -0.016339677646116588    -8.729676334116887E-4    0.0029748503721215673    -0.01844156038482645     0.01844156038482645      -0.0029748503721215673   8.729676334116887E-4     0.016339677646116588
0.09470055129558612       -0.003807079816260016    -0.00315717733789237     2.7132566020880125E-4    -0.016000389005361965    -7.720697403218921E-4    0.002942675021992294     -0.01817099428703235     0.01817099428703235      -0.002942675021992294    7.720697403218921E-4     0.016000389005361965
0.09800762822823127       -0.0037681988682983923   -0.00311245812017463     2.7760775002894035E-4    -0.015763341097004935    -6.905456238113638E-4    0.002911407624042878     -0.017984203097236435    0.017984203097236435     -0.002911407624042878    6.905456238113638E-4     0.015763341097004935
0.09844701433549169       -0.003763012663893011    -0.0031069009889840926   2.7829625707370676E-4    -0.015733543266443495    -6.814926108714477E-4    0.0029078626674610935    -0.017959913323033126    0.017959913323033126     -0.0029078626674610935   6.814926108714477E-4     0.015733543266443495
0.1045609248193477        -0.0036908483670216752   -0.0030295753701614324   2.878766019449915E-4     -0.015318916436747699    -5.555229686609995E-4    0.002858535784220924     -0.017621929252307607    0.017621929252307607     -0.002858535784220924    5.555229686609995E-4     0.015318916436747699
0.10761073033307651       -0.0036532867608941567   -0.0029916798295425776   2.93437673970206E-4      -0.015107862314535241    -4.947152709586153E-4    0.0028422166627202552    -0.017455363706296866    0.017455363706296866     -0.0028422166627202552   4.947152709586153E-4     0.015107862314535241
0.10872161367814448       -0.0036406882995024827   -0.0029777094882252495   2.9552559777477845E-4    -0.015032402672581616    -4.696494745716903E-4    0.0028338542567699103    -0.017396607454779823    0.017396607454779823     -0.0028338542567699103   4.696494745716903E-4     0.015032402672581616
0.11414098474949863       -0.0035789760578623514   -0.0029142969102685973   3.0390883285598533E-4    -0.01468520751510657     -3.693032836571675E-4    0.002800573946505043     -0.017116478177954433    0.017116478177954433     -0.002800573946505043    3.693032836571675E-4     0.01468520751510657
0.11464842140946682       -0.0035731147680008383   -0.002908344638378024    3.047008133731783E-4     -0.014652460197643052    -3.6000112563970067E-4   0.00279760763262512      -0.017090066704628457    0.017090066704628457     -0.00279760763262512     3.6000112563970067E-4    0.014652460197643052
0.11485915646228334       -0.0035707002846169455   -0.002905951010388991    3.049916453864358E-4     -0.014639287018855139    -3.56485880387359E-4     0.0027964190434788387    -0.017079220181946606    0.017079220181946606     -0.0027964190434788387   3.56485880387359E-4      0.014639287018855139
0.1177883040104893        -0.0035350341192541363   -0.002871336046729021    3.0889666264645216E-4    -0.014448489728109547    -3.0835325109300113E-4   0.0027795265522646117    -0.016919663029281145    0.016919663029281145     -0.0027795265522646117   3.0835325109300113E-4    0.014448489728109547
0.12041606578258085       -0.003503037716083909    -0.0028402826850423713   3.1239988496842557E-4    -0.014277323947421247    -2.6517308308561223E-4   0.00276437216283301      -0.01677652302716863     0.01677652302716863      -0.00276437216283301     2.6517308308561223E-4    0.014277323947421247
0.12313373043246048       -0.0034747788379565015   -0.0028086330766787728   3.161194143003765E-4     -0.014110979248747834    -2.1186389692182708E-4   0.002740819211324832     -0.016639934563150827    0.016639934563150827     -0.002740819211324832    2.1186389692182708E-4    0.014110979248747834
0.12564457711589153       -0.0034486704987885964   -0.0027793920464452768   3.195558824045141E-4     -0.013957293607294984    -1.6261161214059888E-4   0.0027190586713767046    -0.01651374066653108     0.01651374066653108      -0.0027190586713767046   1.6261161214059888E-4    0.013957293607294984
0.1303036724787105        -0.0033984885600470685   -0.002727719600397514    3.2597312075885096E-4    -0.013676243438251294    -8.228919806301652E-5    0.0026900741641338174    -0.016284028404322082    0.016284028404322082     -0.0026900741641338174   8.228919806301652E-5     0.013676243438251294
0.13232823835478322       -0.0033771139580835823   -0.002706063805121395    3.2845213057860085E-4    -0.013558610809216965    -5.015497688263404E-5    0.002677772021511434     -0.016186227853845752    0.016186227853845752     -0.002677772021511434    5.015497688263404E-5     0.013558610809216965
0.1363564671874008        -0.003334585439287218    -0.002662975802920281    3.333845553271744E-4     -0.013324560066026597    1.3781691122272715E-5    0.002653294751495115     -0.015991636508643978    0.015991636508643978     -0.002653294751495115    -1.3781691122272715E-5   0.013324560066026597
0.14101493423203673       -0.0032846699464133774   -0.0026153288516071642   3.386045309817944E-4     -0.013060908323721086    7.777146193242369E-5     0.0026310647859219237    -0.015769744571575428    0.015769744571575428     -0.0026310647859219237   -7.777146193242369E-5    0.013060908323721086
0.14617559782491654       -0.0032336053940230864   -0.0025640187029799403   3.437696186938239E-4     -0.012784188422210714    1.5023315388163212E-4    0.0025999237956689522    -0.01553434537176129     0.01553434537176129      -0.0025999237956689522   -1.5023315388163212E-4   0.012784188422210714
0.15094324479415627       -0.003186429724836849    -0.0025166161412374273   3.4854135285802915E-4    -0.01252854246195388     2.1717643739351891E-4    0.0025711543854707074    -0.0153168732848181      0.0153168732848181       -0.0025711543854707074   -2.1717643739351891E-4   0.01252854246195388
0.1545369277527222        -0.0031495546708353293   -0.0024803620217497815   3.5171531395469997E-4    -0.01233333415110122     2.648845322401006E-4     0.0025488379793974928    -0.015147056662738806    0.015147056662738806     -0.0025488379793974928   -2.648845322401006E-4    0.01233333415110122
0.16045606800337076       -0.0030914747762519033   -0.0024251656877421635   3.56682838092204E-4      -0.012031715263361498    3.34183841646116E-4      0.0025192788630915095    -0.014885177968099116    0.014885177968099116     -0.0025192788630915095   -3.34183841646116E-4     0.012031715263361498
0.1612804401919584        -0.003083300358867145    -0.0024173791393348977   3.574153468014888E-4     -0.011989076748533042    3.441246869355372E-4     0.002515198087476366     -0.01484839952294494     0.01484839952294494      -0.002515198087476366    -3.441246869355372E-4    0.011989076748533042
0.16516666383037498       -0.003044764835094372    -0.0023806720925653585   3.608685111619285E-4     -0.011788071903237121    3.909874371403676E-4     0.002495960652155054     -0.014675019992532536    0.014675019992532536     -0.002495960652155054    -3.909874371403676E-4    0.011788071903237121
0.16589913402588025       -0.0030379233115857785   -0.002374073633570303    3.61544996302905E-4      -0.011751887538670862    3.998057076722543E-4     0.0024925542627509795    -0.014644247509094089    0.014644247509094089     -0.0024925542627509795   -3.998057076722543E-4    0.011751887538670862
0.1675836224693227        -0.0030221896102604756   -0.00235889891657853     3.6310073387301806E-4    -0.011668673034764484    4.200854062774206E-4     0.0024847204647067177    -0.014573478905748616    0.014573478905748616     -0.0024847204647067177   -4.200854062774206E-4    0.011668673034764484
0.17409864926285779       -0.002963256571127194    -0.0023010786353714436   3.6787073560114056E-4    -0.011358266105964174    4.947601785446065E-4     0.002448205706264512     -0.01430123199077328     0.01430123199077328      -0.002448205706264512    -4.947601785446065E-4    0.011358266105964174
0.17475503828229913       -0.0029572969306849326   -0.002295471492954948    3.6830574484268854E-4    -0.01132778536086397     5.01402361875762E-4      0.0024450435968657405    -0.014274231319605462    0.014274231319605462     -0.0024450435968657405   -5.01402361875762E-4     0.01132778536086397
0.18238145887827412       -0.0028880533521556118   -0.002230323501225712    3.733600089161555E-4     -0.010973637172323752    5.78576236298697E-4      0.0024083038350305413    -0.013960517243652982    0.013960517243652982     -0.0024083038350305413   -5.78576236298697E-4     0.010973637172323752
0.18241681304494228       -0.0028877276441033294   -0.0022300237622957133   3.733813079339285E-4     -0.010972001343358101    5.789092330552199E-4     0.0024081412304162025    -0.013959051806829515    0.013959051806829515     -0.0024081412304162025   -5.789092330552199E-4    0.010972001343358101
0.18272589154829644       -0.0028848801902720852   -0.0022274033396238865   3.735675114045968E-4     -0.010957700353797457    5.818204072908865E-4     0.002406719683945882     -0.013946240445034218    0.013946240445034218     -0.002406719683945882    -5.818204072908865E-4    0.010957700353797457
0.18604175821400992       -0.002854885122286009    -0.0022003555374197053   3.76076478011559E-4      -0.010806530944784912    6.130095443591259E-4     0.00239560227973334      -0.013815142768877367    0.013815142768877367     -0.00239560227973334     -6.130095443591259E-4    0.010806530944784912
0.18700599212294733       -0.002847081064792867    -0.0021922577221836566   3.7665831575113166E-4    -0.010764302033132191    6.240222260392768E-4     0.002389244299969771     -0.01377756855914123     0.01377756855914123      -0.002389244299969771    -6.240222260392768E-4    0.010764302033132191
0.19334832007772917       -0.0027932626184466523   -0.0021410300353527467   3.805404865981212E-4     -0.010487453396559075    6.855970772275373E-4     0.002358726815557427     -0.013531777289344031    0.013531777289344031     -0.002358726815557427    -6.855970772275373E-4    0.010487453396559075
0.19386897919493862       -0.0027888445144059935   -0.0021368246138746675   3.808591846630053E-4     -0.010464726131783984    6.906519258399951E-4     0.0023562215514640423    -0.013511599609088012    0.013511599609088012     -0.0023562215514640423   -6.906519258399951E-4    0.010464726131783984
0.19395334930168096       -0.0027880983123075736   -0.0021362222269438766   3.809166580661198E-4     -0.010461196673182313    6.911965760479854E-4     0.0023561366884809675    -0.013508529937711258    0.013508529937711258     -0.0023561366884809675   -6.911965760479854E-4    0.010461196673182313
0.19414591924614968       -0.0027866750209348157   -0.002134759771305548    3.8115738451555223E-4    -0.01045299981772408     6.93700266015185E-4      0.0023555588101092277    -0.013502258893848484    0.013502258893848484     -0.0023555588101092277   -6.93700266015185E-4     0.01045299981772408
0.19533934098106637       -0.002777407900967344    -0.0021256531876917444   3.8240617791222506E-4    -0.010402150653361033    7.074809505083441E-4     0.0023517684727894514    -0.013461400076658823    0.013461400076658823     -0.0023517684727894514   -7.074809505083441E-4    0.010402150653361033
0.19558854469656684       -0.002775472792312696    -0.0021237516013491477   3.8266694403139167E-4    -0.01039153261254728     7.103585567035043E-4     0.0023509769955476242    -0.013452868164798404    0.013452868164798404     -0.0023509769955476242   -7.103585567035043E-4    0.01039153261254728
0.19759441882177          -0.0027579541386229182   -0.002108535960953775    3.826457598075321E-4     -0.010310933120877046    7.208834336146283E-4     0.002340282644845623     -0.01337209919933729     0.01337209919933729      -0.002340282644845623    -7.208834336146283E-4    0.010310933120877046
0.1985828020874833        -0.0027493219199172464   -0.0021010385391789293   3.826353213996096E-4     -0.010271218171772855    7.260695078961308E-4     0.002335013063300741     -0.013332300742969719    0.013332300742969719     -0.002335013063300741    -7.260695078961308E-4    0.010271218171772855
0.20032159771005184       -0.0027356178517760283   -0.002087711375798764    3.8341472636484555E-4    -0.010200710925488982    7.417604816151331E-4     0.002325557329303626     -0.013268028736407731    0.013268028736407731     -0.002325557329303626    -7.417604816151331E-4    0.010200710925488982
0.20209701045727307       -0.0027204685680449845   -0.002073617127706005    3.84091305330187E-4      -0.010125423297887251    7.564509742926902E-4     0.0023162794683488004    -0.013198153740528731    0.013198153740528731     -0.0023162794683488004   -7.564509742926902E-4    0.010125423297887251
0.20553089179237216       -0.0026916349634144524   -0.0020481598142966144   3.8549239648352936E-4    -0.009985779783784645    7.807600698731653E-4     0.0023031791019950633    -0.013069718955652863    0.013069718955652863     -0.0023031791019950633   -7.807600698731653E-4    0.009985779783784645
0.20582305339466464       -0.0026891817417370985   -0.0020459938543376235   3.856116041661403E-4     -0.00997389862982252     7.828283371258743E-4     0.0023020644962032425    -0.013058791463151628    0.013058791463151628     -0.0023020644962032425   -7.828283371258743E-4    0.00997389862982252
0.20987640068031171       -0.0026573878587000574   -0.0020163426135177786   3.870990679969891E-4     -0.00981540728596551     8.141441488347211E-4     0.0022826483951411854    -0.012912199829941406    0.012912199829941406     -0.0022826483951411854   -8.141441488347211E-4    0.00981540728596551
0.2103021160971055        -0.002654121914944145    -0.0020132099827350537   3.87281367260776E-4      -0.009798748309050363    8.177393507262198E-4     0.002280511587359982     -0.012896999247136554    0.012896999247136554     -0.002280511587359982    -8.177393507262198E-4    0.009798748309050363
0.2103992728865189        -0.002653388376259679    -0.0020125418281835496   3.873255078121679E-4     -0.00979510020582135     8.184532992173661E-4     0.002280150763279971     -0.012893704268318677    0.012893704268318677     -0.002280150763279971    -8.184532992173661E-4    0.00979510020582135
0.21306330470184617       -0.0026335493658839627   -0.0019929861966144886   3.8907185807671033E-4    -0.009689769889304565    8.444275742312861E-4     0.0022681472903823903    -0.01280234475391823     0.01280234475391823      -0.0022681472903823903   -8.444275742312861E-4    0.009689769889304565
0.2135212755559969        -0.002629929699197389    -0.001989798725602297    3.8918698198644666E-4    -0.009672507647255899    8.472111495336572E-4     0.0022662847063579096    -0.012786003503147455    0.012786003503147455     -0.0022662847063579096   -8.472111495336572E-4    0.009672507647255899
0.21787279825953754       -0.002595536545958226    -0.001959512185856991    3.9028086012824864E-4    -0.009508486208974447    8.736599748584589E-4     0.0022485869061675237    -0.012630733090000418    0.012630733090000418     -0.0022485869061675237   -8.736599748584589E-4    0.009508486208974447
0.21850722173693787       -0.0025901616697912976   -0.0019552105422362457   3.903039656217895E-4     -0.00948473910380419     8.759075753610013E-4     0.0022465241496133085    -0.012607170828778491    0.012607170828778491     -0.0022465241496133085   -8.759075753610013E-4    0.00948473910380419
0.21986111169927322       -0.0025800091381793107   -0.0019462797470735697   3.9081793556312443E-4    -0.00943558577532685     8.844507773903972E-4     0.002242092707114592     -0.01256212925983183     0.01256212925983183      -0.002242092707114592    -8.844507773903972E-4    0.00943558577532685
0.22047694806298587       -0.0025753518141621713   -0.001942102203318806    3.9103365774987865E-4    -0.009412875607281263    8.88531649367425E-4      0.002239737612631598     -0.012541144869280277    0.012541144869280277     -0.002239737612631598    -8.88531649367425E-4     0.009412875607281263
0.22439570314138915       -0.0025448460397609735   -0.0019148249546449793   3.920501060107088E-4     -0.009265966519414066    9.134176396298301E-4     0.002222983208455834     -0.012402367367499723    0.012402367367499723     -0.002222983208455834    -9.134176396298301E-4    0.009265966519414066
0.22505506162276406       -0.002539713225721844    -0.0019102353630778052   3.9222113067753487E-4    -0.009241248017966979    9.176048849203972E-4     0.0022201641604998757    -0.012379017063387246    0.012379017063387246     -0.0022201641604998757   -9.176048849203972E-4    0.009241248017966979
0.22659788313526558       -0.0025285850477696024   -0.001899698928477832    3.9256200178946305E-4    -0.009186018873814867    9.283213172635481E-4     0.0022121746970521507    -0.012326514888130555    0.012326514888130555     -0.0022121746970521507   -9.283213172635481E-4    0.009186018873814867
0.22671232737677033       -0.0025277595758178874   -0.0018989173511818286   3.9258728710959853E-4    -0.009181922056742883    9.291162465286703E-4     0.0022115820503481125    -0.012322620353619657    0.012322620353619657     -0.0022115820503481125   -9.291162465286703E-4    0.009181922056742883
0.23055462323945292       -0.002498986666574226    -0.0018740633538080222   3.9370286970635197E-4    -0.009045351915747124    9.505947505497796E-4     0.00219902820710103      -0.012194974873397926    0.012194974873397926     -0.00219902820710103     -9.505947505497796E-4    0.009045351915747124
0.23127540408698066       -0.0024934223764472223   -0.0018692787280171516   3.9383923726815987E-4    -0.009019323987873274    9.543655179156164E-4     0.0021963483802296567    -0.012170037886018536    0.012170037886018536     -0.0021963483802296567   -9.543655179156164E-4    0.009019323987873274
0.23243773672658719       -0.0024849822141846016   -0.001861836468483041    3.93952543268751E-4      -0.008979663660743337    9.602651959950712E-4     0.0021913551501549313    -0.01213128400689333     0.01213128400689333      -0.0021913551501549313   -9.602651959950712E-4    0.008979663660743337
0.2419727211070178        -0.0024175261752868308   -0.0018004805577722443   3.956218595656733E-4     -0.008654006585627715    0.001016098115519608     0.002148876761005772     -0.011818981462153082    0.011818981462153082     -0.002148876761005772    -0.001016098115519608    0.008654006585627715
0.2519137462197808        -0.002349019321684593    -0.0017405255248370013   3.967662386839263E-4     -0.008332550263144497    0.0010635270235938741    0.0021106028858775302    -0.011506680172615894    0.011506680172615894     -0.0021106028858775302   -0.0010635270235938741   0.008332550263144497