% Model:              Cylinder_slice_potential_1.mph
% Version:            COMSOL 6.2.0.415
% Date:               May 17 2024, 18:29
% Dimension:          1
% Nodes:              767
% Expressions:        11
% Description:        Line graph
% Arc length (m)          Magnetic scalar potential Magnetic scalar potential Magnetic scalar potential Magnetic scalar potential Magnetic scalar potential Magnetic scalar potential Magnetic scalar potential Magnetic scalar potential Magnetic scalar potential Magnetic scalar potential Magnetic scalar potential
0                         -0.0023695396642012365   1.3551280152096348E-6    2.7067317941630946E-7    -0.004733931251639175    0.004744227405165761     -0.004742062019730442    -0.004736096637074503    0.004736096637074503     0.004742062019730442     -0.004744227405165761    0.004733931251639175
3.5658049709540244E-4     -0.0023662231562856257   3.0164488313258657E-7    7.849327215824939E-7     -0.00472840164703552     0.004736490978106973     -0.004730211516334325    -0.004734681108808177    0.004734681108808177     0.004730211516334325     -0.004736490978106973    0.00472840164703552
8.192892463812996E-4      -0.0023618823320467903   -1.4394803195669655E-6   1.3983869270174672E-6    -0.004722489557344209    0.004725039770842944     -0.004713852675426815    -0.004733676652760344    0.004733676652760344     0.004713852675426815     -0.004725039770842944    0.004722489557344209
0.0016373666884460824     -0.002355035604575351    -4.2482315562887696E-6   2.398859127370287E-6     -0.004713220467310084    0.004706921950991311     -0.00468773107797236     -0.004732411340329042    0.004732411340329042     0.00468773107797236      -0.004706921950991311    0.004713220467310084
0.006011050459288571      -0.002315792037969516    -1.9551055252435554E-5   7.883395095581772E-6     -0.004658703661314008    0.0046044644905640485    -0.004541397329799404    -0.004721770822078659    0.004721770822078659     0.004541397329799404     -0.0046044644905640485   0.004658703661314008
0.009486982746101833      -0.0022846036879739587   -3.171278933102933E-5    1.2242163732945487E-5    -0.004615377089009219    0.0045230376628866064    -0.004425100353023051    -0.00471331439887278     0.00471331439887278      0.004425100353023051     -0.0045230376628866064   0.004615377089009219
0.01433547629013314       -0.002240843698891084    -4.564830801584571E-5    1.835652707268411E-5     -0.004545206213538966    0.004418168582025362     -0.004271316365443898    -0.004692058430120435    0.004692058430120435     0.004271316365443898     -0.004418168582025362    0.004545206213538966
0.014676348153680671      -0.00223764279307335     -4.668231715131896E-5    1.873782027103923E-5     -0.004540381256516497    0.0044101899157768945    -0.00426028735360859     -0.004690283818684807    0.004690283818684807     0.00426028735360859      -0.0044101899157768945   0.004540381256516497
0.016089665698793994      -0.0022243712478499413   -5.096950952256033E-5    2.0318732117089935E-5    -0.0045203760957992015   0.004377108895600557     -0.004214559038663846    -0.004682925952735917    0.004682925952735917     0.004214559038663846     -0.004377108895600557    0.0045203760957992015
0.018245381084806625      -0.0022074960369202713   -5.680441630983124E-5    2.2745970856905323E-5    -0.004494421439342412    0.004335562708338665     -0.004153594941483431    -0.004676389206197651    0.004676389206197651     0.004153594941483431     -0.004335562708338665    0.004494421439342412
0.022010428718007354      -0.0021774850581552027   -6.679706080195543E-5    2.718544779575093E-5     -0.004446619507533264    0.004263320725087538     -0.004045837142721538    -0.004664103089899268    0.004664103089899268     0.004045837142721538     -0.004263320725087538    0.004446619507533264
0.023623440796988388      -0.0021643374093134366   -7.032709381874085E-5    2.906259138658574E-5     -0.004423405734536749    0.004233943902716988     -0.004001443171624311    -0.004655906465629432    0.004655906465629432     0.004001443171624311     -0.004233943902716988    0.004423405734536749
0.028924264043885033      -0.0021211304404812536   -8.192780116713814E-5    3.5231427016351155E-5    -0.0043471185763985145   0.004137403185526493     -0.003855551769395691    -0.004628969992529321    0.004628969992529321     0.003855551769395691     -0.004137403185526493    0.0043471185763985145
0.030075874129212775      -0.002111501948164546    -8.447284575007124E-5    3.660163551602042E-5     -0.0043300158915152214   0.004115991901142955     -0.003823178817014799    -0.004622828975643383    0.004622828975643383     0.003823178817014799     -0.004115991901142955    0.0043300158915152214
0.030992289584491257      -0.0021042948574157196   -8.647895856866502E-5    3.75651381092127E-5      -0.0043177660381005815   0.004099413391562291     -0.0037988922866885964   -0.00461828714297428     0.00461828714297428      0.0037988922866885964    -0.004099413391562291    0.0043177660381005815
0.03453387468991288       -0.0020765504491963337   -9.555562071892384E-5    4.108034901102156E-5     -0.00427544636450535     0.004030755432279977     -0.0037021126401918123   -0.00460408915659352     0.00460408915659352      0.0037021126401918123    -0.004030755432279977    0.00427544636450535
0.03758868439979321       -0.0020520693715930355   -1.019624694058519E-4    4.406543103089275E-5     -0.004233764427280053    0.003974513059092082     -0.0036219896108449475   -0.004586287875527192    0.004586287875527192     0.0036219896108449475    -0.003974513059092082    0.004233764427280053
0.04581627196829241       -0.0019895077205818465   -1.1787309709289102E-4   5.257526844142543E-5     -0.004122333658676661    0.0038356972236507163    -0.0034150950761193204   -0.004542935806208062    0.004542935806208062     0.0034150950761193204    -0.0038356972236507163   0.004122333658676661
0.04765168313843081       -0.0019762134418226697   -1.2111313523675192E-4   5.432700089583059E-5     -0.004098458285772271    0.0038063954815184026    -0.003371779474351765    -0.0045330742929389125   0.0045330742929389125    0.003371779474351765     -0.0038063954815184026   0.004098458285772271
0.05115210267680869       -0.0019500234484607477   -1.2619293899819432E-4   5.764820107449502E-5     -0.004048032909618096    0.0037520608842248893    -0.003290875275628936    -0.004509218518214055    0.004509218518214055     0.003290875275628936     -0.0037520608842248893   0.004048032909618096
0.052997952282780106      -0.0019365300796079076   -1.2950803757177858E-4   5.924687599813313E-5     -0.004024596767938617    0.003721523550493009     -0.003247548542507951    -0.00449857177592368     0.00449857177592368      0.003247548542507951     -0.003721523550493009    0.004024596767938617
0.05358997244587363       -0.0019322023454289713   -1.3057129060813392E-4   5.975961971569491E-5     -0.004017080083819563    0.0037117292978963174    -0.003233652340170765    -0.004495157041545121    0.004495157041545121     0.003233652340170765     -0.0037117292978963174   0.004017080083819563
0.0543982069983006        -0.0019264393187989406   -1.3181849067971774E-4   6.043734038761501E-5     -0.004006584748086573    0.003699172527109185     -0.003215673804008272    -0.004490083471187491    0.004490083471187491     0.003215673804008272     -0.003699172527109185    0.004006584748086573
0.056128983900823055      -0.00191409820649444     -1.344892810712442E-4    6.188863108262312E-5     -0.00398410973187212     0.0036722830941056375    -0.00317717404544466     -0.004479218780533102    0.004479218780533102     0.00317717404544466      -0.0036722830941056375   0.00398410973187212
0.05691226765270749       -0.0019086614917226997   -1.357556277619037E-4    6.25974149507751E-5      -0.003974200206928009    0.003660445759962786     -0.003159666440356592    -0.0044749795265342064   0.0044749795265342064    0.003159666440356592     -0.003660445759962786    0.003974200206928009
0.0577474285591211        -0.0019028354622768894   -1.3692041048632094E-4   6.335208261614092E-5     -0.003963023825548177    0.0036483180235593773    -0.0031415013626302567   -0.004469840486477301    0.004469840486477301     0.0031415013626302567    -0.0036483180235593773   0.003963023825548177
0.05806344269498826       -0.0019005650879105067   -1.3741033855998574E-4   6.36393766675937E-5      -0.0039588036848305945   0.0036434566668114288    -0.0031343416534706857   -0.004467918698171341    0.004467918698171341     0.0031343416534706857    -0.0036434566668114288   0.0039588036848305945
0.060662772450457925      -0.0018818904434032275   -1.4144017291034555E-4   6.600247341471048E-5     -0.003924091511878649    0.003603470261734259     -0.0030754504744165815   -0.004452111299196331    0.004452111299196331     0.0030754504744165815    -0.003603470261734259    0.003924091511878649
0.06122785149928911       -0.0018779322434305658   -1.4217335058776248E-4   6.650061651768818E-5     -0.003916382072553666    0.0035953469011685947    -0.0030633419690270962   -0.0044483870046951686   0.0044483870046951686    0.0030633419690270962    -0.0035953469011685947   0.003916382072553666
0.06237228628428325       -0.0018699158398069542   -1.436582296314161E-4    6.750948827842997E-5     -0.0039007684153944365   0.0035788949438333786    -0.003038819037605945    -0.0044408443216218734   0.0044408443216218734    0.003038819037605945     -0.0035788949438333786   0.0039007684153944365
0.06463395263568311       -0.0018537815718289144   -1.470516646075364E-4    6.93731023176676E-5      -0.0038712257282097658   0.003543900559105887     -0.002988915740564553    -0.004426210546751104    0.004426210546751104     0.002988915740564553     -0.003543900559105887    0.0038712257282097658
0.06647626074327125       -0.0018414781076734202   -1.4959727526765352E-4   7.068349256346049E-5     -0.003849014070895957    0.003516898359797719     -0.0029514304192900416   -0.004414482011403639    0.004414482011403639     0.0029514304192900416    -0.003516898359797719    0.003849014070895957
0.06747445423631344       -0.001834528947111148    -1.5083655791690295E-4   7.145432070676951E-5     -0.003835750285145925    0.0035023655032986626    -0.0029307309376445127   -0.00440738485080008     0.00440738485080008      0.0029307309376445127    -0.0035023655032986626   0.003835750285145925
0.06845310371650555       -0.0018277158468260394   -1.5205157617634155E-4   7.221005651052409E-5     -0.0038227461961390053   0.0034881171911651477    -0.002910436739080962    -0.004400426648223196    0.004400426648223196     0.002910436739080962     -0.0034881171911651477   0.0038227461961390053
0.06968482313253574       -0.001819194664205213    -1.534682169361898E-4    7.330312166965722E-5     -0.003805581492540365    0.003471197164280482     -0.0028847721909232315   -0.004392006465897621    0.004392006465897621     0.0028847721909232315    -0.003471197164280482    0.003805581492540365
0.07017995419402026       -0.0018157692881485858   -1.5403768335365238E-4   7.37425159874456E-5      -0.0037986815624083447   0.0034643955901859937    -0.0028744554622864354   -0.004388621690307908    0.004388621690307908     0.0028744554622864354    -0.0034643955901859937   0.0037986815624083447
0.07112754161689464       -0.0018089604428608256   -1.5517358328362625E-4   7.460275866716415E-5     -0.0037850306009038714   0.003450811170539426     -0.0028539891012021195   -0.004381852670241183    0.004381852670241183     0.0028539891012021195    -0.003450811170539426    0.0037850306009038714
0.07258910650635843       -0.001799808594014482    -1.5716662753983312E-4   7.571890933310528E-5     -0.0037682414333160405   0.0034309929427418827    -0.0028252416680770477   -0.0043739927079808815   0.0043739927079808815    0.0028252416680770477    -0.0034309929427418827   0.0037682414333160405
0.07318739107223632       -0.0017959399047693333   -1.5774667592290454E-4   7.621350603732317E-5     -0.0037602658131580856   0.0034234938059192425    -0.002813785757620664    -0.004369973861456669    0.004369973861456669     0.002813785757620664     -0.0034234938059192425   0.0037602658131580856
0.07464840435633899       -0.0017864925502801968   -1.5916315637622548E-4   7.742131315177787E-5     -0.0037407893170819566   0.0034051808840388255    -0.0027858103788246094   -0.004360159822296178    0.004360159822296178     0.0027858103788246094    -0.0034051808840388255   0.0037407893170819566
0.07891524454749833       -0.0017581822886706968   -1.6443171626041435E-4   8.025638177447098E-5     -0.0036886341990247508   0.0033440949556580316    -0.0027020439014622706   -0.004330685253220517    0.004330685253220517     0.0027020439014622706    -0.0033440949556580316   0.0036886341990247508
0.08606247410466145       -0.0017129247313750558   -1.7222247228717406E-4   8.535588258479051E-5     -0.003601093349272471    0.0032506055762277497    -0.0025677585155494316   -0.004283940409950794    0.004283940409950794     0.0025677585155494316    -0.0032506055762277497   0.003601093349272471
0.08679030683522214       -0.0017084278820691224   -1.7279140061500273E-4   8.588367828305469E-5     -0.0035916952528510324   0.0032420162754254528    -0.0025549468491610212   -0.004278764679115468    0.004278764679115468     0.0025549468491610212    -0.0032420162754254528   0.0035916952528510324
0.08692452242839471       -0.001707598643053533    -1.7289631352944857E-4   8.598100615763639E-5     -0.003589962202064865    0.0032404323701492634    -0.0025525843208881785   -0.004277810251325954    0.004277810251325954     0.0025525843208881785    -0.0032404323701492634   0.003589962202064865
0.0876505349009764        -0.0017029906018301271   -1.736563933003535E-4    8.638968692448588E-5     -0.003581391635863369    0.003230570771457135     -0.0025394532760612543   -0.004272509131259255    0.004272509131259255     0.0025394532760612543    -0.003230570771457135    0.003581391635863369
0.09429995826417949       -0.0016615592698913891   -1.7946522285400518E-4   9.140754593214136E-5     -0.003495884024616226    0.0031503530549493253    -0.0024190926874922015   -0.004227144392073356    0.004227144392073356     0.0024190926874922015    -0.0031503530549493253   0.003495884024616226
0.09597786122196995       -0.0016511045656850203   -1.8093101195435174E-4   9.267374301583328E-5     -0.0034743071951697604   0.0031301110675703153    -0.0023887211234436562   -0.004215697139296426    0.004215697139296426     0.0023887211234436562    -0.0031301110675703153   0.0034743071951697604
0.09824837809207074       -0.0016382023767235118   -1.8265288308102248E-4   9.39666159959692E-5      -0.0034484969387062123   0.0031043125681878302    -0.002352579640220083    -0.004200229866673963    0.004200229866673963     0.002352579640220083     -0.0031043125681878302   0.0034484969387062123
0.1012905090290256        -0.001620920070916581    -1.84995212705305E-4     9.565897290506398E-5     -0.003414189888328819    0.003069490395337501     -0.002304218612096995    -0.004179461671569329    0.004179461671569329     0.002304218612096995     -0.003069490395337501    0.003414189888328819
0.10155624659860786       -0.0016194853243790587   -1.8521106868336966E-4   9.583170617470225E-5     -0.003411277030109416    0.0030666642674068156    -0.0023000106180092036   -0.004177930679507032    0.004177930679507032     0.0023000106180092036    -0.0030666642674068156   0.003411277030109416
0.10420003921348273       -0.0016041683665022125   -1.8720483714399248E-4   9.712289096067554E-5     -0.0033814596805936984   0.003035213785415147     -0.002258230657729749    -0.004158442808279102    0.004158442808279102     0.002258230657729749     -0.003035213785415147    0.0033814596805936984
0.1131218617665713        -0.001552479296995972    -1.9393306851794365E-4   1.0148016220762869E-4    -0.0032808371507152575   0.0029290800372686254    -0.0021172387396076017   -0.0040926784483762855   0.0040926784483762855    0.0021172387396076017    -0.0029290800372686254   0.0032808371507152575
0.11515276214365969       -0.0015411641041476354   -1.9531451501355424E-4   1.0270689214456064E-4    -0.003257444184757689    0.0029072122318328482    -0.002085557094676369    -0.0040790993219141725   0.0040790993219141725    0.002085557094676369     -0.0029072122318328482   0.003257444184757689
0.1202561995673951        -0.0015136185899520523   -1.9775052527620823E-4   1.0516065272284602E-4    -0.003199846144841343    0.0028546282149668617    -0.0020133429931840996   -0.004041131366624109    0.004041131366624109     0.0020133429931840996    -0.0028546282149668617   0.003199846144841343
0.12450229632655169       -0.0014906067475842998   -2.0001774000100674E-4   1.0713709703713332E-4    -0.0031527183270230845   0.002809708663314111     -0.0019526118870170498   -0.00400981510332015     0.00400981510332015      0.0019526118870170498    -0.002809708663314111    0.0031527183270230845
0.12509936172102637       -0.0014873709346671159   -2.0033654466580897E-4   1.0741501498651177E-4    -0.0031460914433856088   0.00280339229528285      -0.0019440721753907614   -0.004005411563277703    0.004005411563277703     0.0019440721753907614    -0.00280339229528285     0.0031460914433856088
0.1261965342421669        -0.0014813528491420874   -2.009066561715115E-4    1.0794335748867646E-4    -0.0031336522368440017   0.0027917591597243444    -0.0019282122998149377   -0.003997199096753411    0.003997199096753411     0.0019282122998149377    -0.0027917591597243444   0.0031336522368440017
0.12655363698795485       -0.001479451890053459    -2.0106977219627574E-4   1.0805827224448659E-4    -0.0031298800077177967   0.002787927552496036     -0.001923461374540148    -0.0039943461856736875   0.0039943461856736875    0.001923461374540148     -0.002787927552496036    0.0031298800077177967
0.12836582616369185       -0.001470230439034894    -2.0201634350087752E-4   1.0882421599577766E-4    -0.003111213044589308    0.0027697087115502645    -0.0018991149835840488   -0.003981806772555528    0.003981806772555528     0.0018991149835840488    -0.0027697087115502645   0.003111213044589308
0.12856047582297597       -0.0014692399506670674   -2.021180159887147E-4    1.0890648703691162E-4    -0.003109208001152631    0.0027677518015156357    -0.0018964999052203484   -0.003980459897447923    0.003980459897447923     0.0018964999052203484    -0.0027677518015156357   0.003109208001152631
0.13724030634067413       -0.001424659343423748    -2.0540265068840359E-4   1.1283869532446082E-4    -0.0030141718576148615   0.002684465516080126     -0.0017817559534844456   -0.0039168814202105474   0.0039168814202105474    0.0017817559534844456    -0.002684465516080126    0.0030141718576148615
0.14161107650178217       -0.0014027592682359573   -2.067458390385331E-4    1.1428215250822155E-4    -0.0029686274435546263   0.0026424096293891997    -0.001728152409323433    -0.003882884663620398    0.003882884663620398     0.001728152409323433     -0.0026424096293891997   0.0029686274435546263
0.14361104433282512       -0.00139306891063567     -2.074023748288128E-4    1.1514852340516451E-4    -0.0029477508521371185   0.0026245247904055575    -0.0017033366031642472   -0.0038689390393784337   0.0038689390393784337    0.0017033366031642472    -0.0026245247904055575   0.0029477508521371185
0.14635878236993669       -0.0013797868269393085   -2.0846828349070385E-4   1.1629508140743056E-4    -0.002919798178721005    0.002599349129036226     -0.0016689884777767868   -0.0038501588299804483   0.0038501588299804483    0.0016689884777767868    -0.002599349129036226    0.002919798178721005
0.152479826294041         -0.0013511101341002864   -2.1003715151731478E-4   1.1834580593008598E-4    -0.0028589484990321715   0.0025454920373689707    -0.0015987255899282888   -0.0038057149464728593   0.0038057149464728593    0.0015987255899282888    -0.0025454920373689707   0.0028589484990321715
0.15418785305845503       -0.001342926782893879    -2.1045657096129596E-4   1.1893325337149313E-4    -0.0028414902651856715   0.00253021686638984      -0.0015787508394179016   -0.003792956292157616    0.003792956292157616     0.0015787508394179016    -0.00253021686638984     0.0028414902651856715
0.15494252884911236       -0.0013393110450315737   -2.10641887554161E-4     1.1919281157722516E-4    -0.002833776506416728    0.002523467673709563     -0.0015699251810917675   -0.0037873189990345287   0.0037873189990345287    0.0015699251810917675    -0.002523467673709563    0.002833776506416728
0.15562154431025854       -0.0013360666846942756   -2.108958663537675E-4    1.1938862042241508E-4    -0.0028272664867601918   0.002517000252016907     -0.0015618912886375923   -0.0037823754501395117   0.0037823754501395117    0.0015618912886375923    -0.002517000252016907    0.0028272664867601918
0.15639174140101453       -0.0013326948578884614   -2.111251639555943E-4    1.1962898278612712E-4    -0.0028202492764991954   0.0025105301550546466    -0.0015534982927656352   -0.003777281138788212    0.003777281138788212     0.0015534982927656352    -0.0025105301550546466   0.0028202492764991954
0.15765580728414197       -0.001326925379993469    -2.1138913039214587E-4   1.1998873742395155E-4    -0.0028080632014675674   0.0024996383185063044    -0.0015397284191146978   -0.0037679731008591786   0.0037679731008591786    0.0015397284191146978    -0.0024996383185063044   0.0028080632014675674
0.16548708002669463       -0.0012911817090496482   -2.1302448277931796E-4   1.2221752686191262E-4    -0.0027325667589895982   0.0024321600772089914    -0.0014544198623136955   -0.003710306973884899    0.003710306973884899     0.0014544198623136955    -0.0024321600772089914   0.0027325667589895982
0.16656262473751357       -0.0012863131701113778   -2.1325683448056654E-4   1.2255068003760712E-4    -0.002722194123514025    0.0024230585569314823    -0.001442653116630631    -0.0037025995638148815   0.0037025995638148815    0.001442653116630631     -0.0024230585569314823   0.002722194123514025
0.16720045593942587       -0.001283425976291058    -2.1339462620915107E-4   1.2274825015099863E-4    -0.0027160428306055723   0.002417661074558655     -0.0014356750733506712   -0.003698028831813561    0.003698028831813561     0.0014356750733506712    -0.002417661074558655    0.0027160428306055723
0.16761270827781968       -0.0012815785044305108   -2.1338318357937272E-4   1.228621371874172E-4     -0.0027118580108494686   0.002414456006872571     -0.001431558909373238    -0.003694755108348806    0.003694755108348806     0.001431558909373238     -0.002414456006872571    0.0027118580108494686
0.17050731923569715       -0.0012681093963437268   -2.134551282972554E-4    1.2363826377634942E-4    -0.0026820311224738202   0.0023904064629010832    -0.001401300352690293    -0.0036711372326846147   0.0036711372326846147    0.001401300352690293     -0.0023904064629010832   0.0026820311224738202
0.17372376568801348       -0.0012547655775115214   -2.133387434607219E-4    1.2441280114595374E-4    -0.0026518961808213925   0.002367166129224691     -0.0013718637200570661   -0.003647198589989021    0.003647198589989021     0.0013718637200570661    -0.002367166129224691    0.0026518961808213925
0.17672955488667463       -0.0012423331547634442   -2.1378130360008102E-4   1.253057126106018E-4     -0.0026247873698847235   0.0023445452491690517    -0.0013420995482842425   -0.0036272330707695366   0.0036272330707695366    0.0013420995482842425    -0.0023445452491690517   0.0026247873698847235
0.17806802535674376       -0.001236446722342955    -2.1412911564357612E-4   1.256485629043187E-4     -0.002612686539999363    0.0023331003493724557    -0.0013279118461379112   -0.0036178750432339112   0.0036178750432339112    0.0013279118461379112    -0.0023331003493724557   0.002612686539999363
0.17877936756859325       -0.001233677229207922    -2.142705438743816E-4    1.258113379171485E-4     -0.002606920738370394    0.0023277881784612925    -0.0013212974751241095   -0.0036134114417075806   0.0036134114417075806    0.0013212974751241095    -0.0023277881784612925   0.002606920738370394
0.18197760129012086       -0.001220343225802945    -2.1431534308446895E-4   1.2651361718009433E-4    -0.002577578012138919    0.00230379489107286      -0.0012916859536321102   -0.0035896869495796726   0.0035896869495796726    0.0012916859536321102    -0.00230379489107286     0.002577578012138919
0.18567351496495502       -0.0012052850474152553   -2.1444869940850906E-4   1.2724295270491616E-4    -0.0025449443822363723   0.002276195807424647     -0.0012582521857853225   -0.0035628880038757003   0.0035628880038757003    0.0012582521857853225    -0.002276195807424647    0.0025449443822363723
0.18968581027351405       -0.0011889378424164577   -2.1459347144605855E-4   1.280347216048592E-4     -0.0025095172127516533   0.002246234156914176     -0.0012219563840753065   -0.003533794985590526    0.003533794985590526     0.0012219563840753065    -0.002246234156914176    0.0025095172127516533
0.1902554338442453        -0.0011867518844681261   -2.1468414839225886E-4   1.2816046967629644E-4    -0.0025049143354078417   0.002242093202464661     -0.0012168094450542935   -0.0035301980928182128   0.0035301980928182128    0.0012168094450542935    -0.002242093202464661    0.0025049143354078417
0.19079505638377067       -0.0011845474219659596   -2.146293900810492E-4    1.282859591505628E-4     -0.0024998391775728148   0.0022383505102910226    -0.001212062837086524    -0.0035261268507773167   0.0035261268507773167    0.001212062837086524     -0.0022383505102910226   0.0024998391775728148
0.19265852224621588       -0.001176934803298399    -2.1444029448894504E-4   1.2871930900951655E-4    -0.002482313254025566    0.0022254259591680285    -0.0011956714870919008   -0.0035120677261016977   0.0035120677261016977    0.0011956714870919008    -0.0022254259591680285   0.002482313254025566
0.19716233119895607       -0.001159675983469622    -2.145647394607861E-4    1.2946362200856642E-4    -0.0024451916972873357   0.00219351223659115      -0.0011578032605226243   -0.003480900673355866    0.003480900673355866     0.0011578032605226243    -0.00219351223659115     0.0024451916972873357
0.19720186644941062       -0.0011595244824242532   -2.1456583186128114E-4   1.2947015572283867E-4    -0.0024448658375409945   0.002193232092156017     -0.0011574708463733127   -0.003480627083323703    0.003480627083323703     0.0011574708463733127    -0.002193232092156017    0.0024448658375409945
0.19722480264865802       -0.0011594320198901175   -2.1456632467089904E-4   1.2947363881889412E-4    -0.002444668458517355    0.0021930596210431134    -0.001157270510491966    -0.003480457569068507    0.003480457569068507     0.001157270510491966     -0.0021930596210431134   0.002444668458517355
0.1990735314698477        -0.001152152139690249    -2.1461649117828234E-4   1.2985201343901327E-4    -0.002428745699159291    0.0021798628596017035    -0.0011410467520896026   -0.0034675618066713964   0.0034675618066713964    0.0011410467520896026    -0.0021798628596017035   0.002428745699159291
0.20006350191932926       -0.0011485044625811677   -2.1477116608006186E-4   1.29988015569178E-4      -0.002421370361125808    0.0021726474891988613    -0.0011327433646454426   -0.0034612744856792315   0.0034612744856792315    0.0011327433646454426    -0.0021726474891988613   0.002421370361125808
0.2013912953239015        -0.0011436849440700826   -2.150580153871094E-4    1.3014666575003272E-4    -0.002411957271301361    0.002162782504978967     -0.0011216091789787103   -0.0034531305973016222   0.0034531305973016222    0.0011216091789787103    -0.002162782504978967    0.002411957271301361
0.20491904134060962       -0.0011307325329146377   -2.1475361559494677E-4   1.307621509352625E-4     -0.0023826773088730653   0.002140252822785485     -0.0010941556153033895   -0.0034287745163551647   0.0034287745163551647    0.0010941556153033895    -0.002140252822785485    0.0023826773088730653
0.20505268415990782       -0.0011302371281734212   -2.1473415602388918E-4   1.3078197342761264E-4    -0.002381548830708058    0.002139399681985625     -0.0010931438945647283   -0.003427804618128959    0.003427804618128959     0.0010931438945647283    -0.002139399681985625    0.002381548830708058
0.20525858020651128       -0.0011294714110237378   -2.1471550048021975E-4   1.3081480924728578E-4    -0.002379830086498991    0.0021380555575959592    -0.0010915370836176773   -0.0034263485604772766   0.0034263485604772766    0.0010915370836176773    -0.0021380555575959592   0.002379830086498991
0.2099953975391428        -0.0011116147368455725   -2.147528285891066E-4    1.3140794898135812E-4    -0.002341856163533032    0.0021046027838492573    -0.0010533391919983971   -0.003393119755383896    0.003393119755383896     0.0010533391919983971    -0.0021046027838492573   0.002341856163533032
0.21162173617305466       -0.0011054157445991232   -2.1427396699436692E-4   1.3170102296049453E-4    -0.0023268492983393686   0.0020948136800571235    -0.001041205496373172    -0.003380457482023324    0.003380457482023324     0.001041205496373172     -0.0020948136800571235   0.0023268492983393686
0.21825869806885895       -0.001081873243378272    -2.1424996622289964E-4   1.322616109952441E-4     -0.0022774499414442663   0.0020500430320688208    -9.919501441068728E-4    -0.003335542829406218    0.003335542829406218     9.919501441068728E-4     -0.0020500430320688208   0.0022774499414442663
0.21830291015550285       -0.0010817164151306295   -2.1424980634188718E-4   1.322653453494792E-4     -0.002277120867889003    0.0020497447926335136    -9.916220298376846E-4    -0.0033352436306848363   0.0033352436306848363    9.916220298376846E-4     -0.0020497447926335136   0.002277120867889003
0.21856623965675295       -0.0010807630737453438   -2.1423918186106277E-4   1.3228609153426697E-4    -0.002275099326936807    0.0020479529680445664    -9.896642357704354E-4    -0.0033333880592109426   0.0033333880592109426    9.896642357704354E-4     -0.0020479529680445664   0.002275099326936807