% Model:              Cylinder_slice_potential.mph
% Version:            COMSOL 6.2.0.339
% Date:               May 8 2024, 04:47
% Dimension:          1
% Nodes:              814
% Expressions:        11
% Description:        Line graph
% Arc length (m)          Magnetic scalar potential Magnetic scalar potential Magnetic scalar potential Magnetic scalar potential Magnetic scalar potential Magnetic scalar potential Magnetic scalar potential Magnetic scalar potential Magnetic scalar potential Magnetic scalar potential Magnetic scalar potential
0                         -0.0052225983689615256   -0.004848758346696041    -1.6846776895140025E-7   -0.024992145649086993    -0.0041017521732408975   0.004100404431089276     -0.024990797906935355    0.024990797906935355     -0.004100404431089276    0.0041017521732408975    0.024992145649086993
0.001514184478711184      -0.005249835592592155    -0.004883457862140074    5.639429725263853E-6     -0.02512748705270349     -0.004128144682334879    0.004173260120136979     -0.025172602490505576    0.025172602490505576     -0.004173260120136979    0.004128144682334879     0.02512748705270349
0.003816791226035292      -0.005291770373385708    -0.004943918729224155    1.4983755337237187E-5    -0.025355361913094954    -0.004188280419552123    0.004308150462250011     -0.025475231955792824    0.025475231955792824     -0.004308150462250011    0.004188280419552123     0.025355361913094954
0.004823718716220173      -0.005309877184271354    -0.004968958326784694    1.9309962331938974E-5    -0.025449389499569052    -0.004209880762483637    0.004364360461139139     -0.02560386919822454     0.02560386919822454      -0.004364360461139139    0.004209880762483637     0.025449389499569052
0.011934645841775273      -0.00543774757607126     -0.0051457880938154035   4.986165842650353E-5     -0.026113412799882742    -0.0043624224955976995   0.004761315763009718     -0.026512306067294746    0.026512306067294746     -0.004761315763009718    0.0043624224955976995    0.026113412799882742
0.014356676069658536      -0.005482140271179204    -0.005204686593789165    6.0530757702372584E-5    -0.026336217292916436    -0.004407656208199618    0.0048919022698185885    -0.026820463354535393    0.026820463354535393     -0.0048919022698185885   0.004407656208199618     0.026336217292916436
0.01503608080659697       -0.005495835093760944    -0.005223028581131927    6.38467523516555E-5      -0.02640536892151107     -0.0044220285464672965   0.004932802565280531     -0.02691614294032429     0.02691614294032429      -0.004932802565280531    0.0044220285464672965    0.02640536892151107
0.015134971416710016      -0.005497828440711393    -0.005225698345147977    6.432941123842881E-5     -0.02641543427191303     -0.004424120509067451    0.004938755798974869     -0.02693006956182043     0.02693006956182043      -0.004938755798974869    0.004424120509067451     0.02641543427191303
0.021519677061162267      -0.0056208912621114535   -0.00539535027364237     9.560485506226902E-5     -0.027045413924900973    -0.0045618488764551535   0.005326687716953294     -0.027810252765399092    0.027810252765399092     -0.005326687716953294    0.0045618488764551535    0.027045413924900973
0.021945766399493253      -0.005628884238939187    -0.005407160500578475    9.740370269560245E-5     -0.027089635168831415    -0.004574098213074666    0.005353327834639474     -0.027868864790396207    0.027868864790396207     -0.005353327834639474    0.004574098213074666     0.027089635168831415
0.02200208497807873       -0.005629940714783825    -0.005408721523429735    9.76414663115568E-5      -0.027095480134610658    -0.004575717275475354    0.005356849005967796     -0.027876611865103082    0.027876611865103082     -0.005356849005967796    0.004575717275475354     0.027095480134610658
0.022721595935248876      -0.005645559833290093    -0.00543042490690204     1.0111786224552224E-4    -0.027177922938304247    -0.004595683605143872    0.005404626503108039     -0.027986865836268394    0.027986865836268394     -0.005404626503108039    0.004595683605143872     0.027177922938304247
0.022770461968346457      -0.005646620615414779    -0.005431898905657053    1.0135396383240784E-4    -0.027183522092471116    -0.004597039630811996    0.005407871341471247     -0.027994353803130347    0.027994353803130347     -0.005407871341471247    0.004597039630811996     0.027183522092471116
0.024307823980615352      -0.005677974544702641    -0.0054764655251294345   1.093090460776455E-4     -0.027348109480483034    -0.004636211301672463    0.005510683670293616     -0.028222581849104166    0.028222581849104166     -0.005510683670293616    0.004636211301672463     0.027348109480483034
0.03088117664709236       -0.005804398752691715    -0.005662046578651641    1.4129405848011887E-4    -0.02802976100741789     -0.004812165996651043    0.005942518464491981     -0.029160113475258823    0.029160113475258823     -0.005942518464491981    0.004812165996651043     0.02802976100741789
0.032082364057457256      -0.00582749841199964     -0.0056959243680484795   1.4721378101485472E-4    -0.02815391480408531     -0.004843921156086766    0.006021631404205592     -0.029331625052204137    0.029331625052204137     -0.006021631404205592    0.004843921156086766     0.02815391480408531
0.033419305676450864      -0.005853208718024205    -0.005733630912600403    1.5380253091457137E-4    -0.02829210005019134     -0.004879265178094539    0.006109685425411097     -0.029522520297507904    0.029522520297507904     -0.006109685425411097    0.004879265178094539     0.02829210005019134
0.033620413456079565      -0.005857015751532325    -0.005739672491698719    1.5473566709361906E-4    -0.02831410630978634     -0.004886043303657059    0.006123928640406        -0.029551991646535283    0.029551991646535283     -0.006123928640406       0.004886043303657059     0.02831410630978634
0.03385613310672301       -0.005862174977720628    -0.005747369154149792    1.5581470960768454E-4    -0.028343198579459904    -0.004894498668577408    0.006141016345438871     -0.02958971625632137     0.02958971625632137      -0.006141016345438871    0.004894498668577408     0.028343198579459904
0.03586660212179861       -0.005903416496444946    -0.005810262701497783    1.6580415782906216E-4    -0.028574404466067002    -0.004960738480287233    0.006287171742919719     -0.029900837728699482    0.029900837728699482     -0.006287171742919719    0.004960738480287233     0.028574404466067002
0.03662234585299285       -0.005918919356228965    -0.005833904649612574    1.6955923329393406E-4    -0.028661315728119925    -0.004985638303204079    0.00634211216955554      -0.03001778959447138     0.03001778959447138      -0.00634211216955554     0.004985638303204079     0.028661315728119925
0.04004165925155323       -0.005982079005005382    -0.005934505683602152    1.89024738106535E-4      -0.0290115761083911      -0.005083260088369579    0.006595457993221849     -0.03052377401324336     0.03052377401324336      -0.006595457993221849    0.005083260088369579     0.0290115761083911
0.041335703784043304      -0.006004153294453704    -0.00597895786300939     1.9537096601956018E-4    -0.029163696313857353    -0.005147083136042547    0.006710050864199019     -0.030726664042013817    0.030726664042013817     -0.006710050864199019    0.005147083136042547     0.029163696313857353
0.04281919673972305       -0.0060323208691933335   -0.006027664946102858    2.032297810684427E-4     -0.029334717452421485    -0.005205433975648161    0.006831272224195693     -0.030960555700969006    0.030960555700969006     -0.006831272224195693    0.005205433975648161     0.029334717452421485
0.04440831711685357       -0.006062494026957052    -0.006079840062916237    2.1164815817395217E-4    -0.029517915609967024    -0.005267939502138824    0.006961124767530432     -0.03121110087535862     0.03121110087535862      -0.006961124767530432    0.005267939502138824     0.029517915609967024
0.04537041724284851       -0.006085557167800291    -0.006110358528222188    2.1731155371898828E-4    -0.02963294370539121     -0.005290715034190054    0.00702920746394195      -0.031371436135143094    0.031371436135143094     -0.00702920746394195     0.005290715034190054     0.02963294370539121
0.047290726288558294      -0.006131590170797719    -0.006171272027144757    2.2861543925098372E-4    -0.02986253466602579     -0.005336173982834928    0.007165097496842786     -0.03169145818003363     0.03169145818003363      -0.007165097496842786    0.005336173982834928     0.02986253466602579
0.053071747717273667      -0.006260748817704146    -0.006368306273360595    2.627884716374636E-4     -0.03057526256894024     -0.005532267298123669    0.007634575071223366     -0.03267757034203991     0.03267757034203991      -0.007634575071223366    0.005532267298123669     0.03057526256894024
0.05456712674143317       -0.006294158334301563    -0.006419273197193244    2.716280229957815E-4     -0.030759624168199756    -0.005582990830993508    0.0077560150149597485    -0.03293264835216597     0.03293264835216597      -0.0077560150149597485   0.005582990830993508     0.030759624168199756
0.05555994937093339       -0.006315618226228156    -0.0064512379907705085   2.773750252491628E-4     -0.03087545032377121     -0.005612977418858589    0.00783197762085188      -0.03309445052576447     0.03309445052576447      -0.00783197762085188     0.005612977418858589     0.03087545032377121
0.05700777898517617       -0.006346124359037288    -0.006501620122937436    2.8616115480980717E-4    -0.03105246446764767     -0.005667967031498533    0.00795725626997698      -0.03334175370612609     0.03334175370612609      -0.00795725626997698     0.005667967031498533     0.03105246446764767
0.06036997271639619       -0.006412486301330633    -0.00662324612437052     3.063221101699027E-4     -0.03146942253509324     -0.005819477329770711    0.008270054211129921     -0.03391999941645242     0.03391999941645242      -0.008270054211129921    0.005819477329770711     0.03146942253509324
0.06302594674353104       -0.00646490909704425     -0.0067193249129991915   3.222483113585558E-4     -0.03179879968765187     -0.005939163299474882    0.008517149790343317     -0.034376786178520274    0.034376786178520274     -0.008517149790343317    0.005939163299474882     0.03179879968765187
0.06868404527318174       -0.0065905301089891144   -0.006931373403314994    3.5869191527768433E-4    -0.03254041276681249     -0.006178292330856044    0.009047827653077507     -0.03540994808903393     0.03540994808903393      -0.009047827653077507    0.006178292330856044     0.03254041276681249
0.06953997273357251       -0.006609533396606364    -0.006963450986419031    3.642049124774543E-4     -0.03265260010256003     -0.006214466516134578    0.009128105815954201     -0.03556623940237962     0.03556623940237962      -0.009128105815954201    0.006214466516134578     0.03265260010256003
0.07154799875359122       -0.00665334542817646     -0.007031938022973425    3.775454448261738E-4     -0.03289232314596852     -0.006278941433262689    0.009299304991872068     -0.03591268670457788     0.03591268670457788      -0.009299304991872068    0.006278941433262689     0.03289232314596852
0.07285876171458322       -0.0066782003846762176   -0.007085403240533075    3.863791409418992E-4     -0.03306709392718408     -0.0063542923884792185   0.009445325516014402     -0.03615812705471925     0.03615812705471925      -0.009445325516014402    0.0063542923884792185    0.03306709392718408
0.07324888034970617       -0.006687716309901762    -0.007101762942868826    3.8879095486741937E-4    -0.03312555762894034     -0.006374692389333306    0.00948502002827265      -0.036235885267879665    0.036235885267879665     -0.00948502002827265     0.006374692389333306     0.03312555762894034
0.0746610722164345        -0.00672216304224941     -0.007160983488878803    3.975214888717962E-4     -0.03333719059564806     -0.006448538426650435    0.009628710337624793     -0.03651736250662241     0.03651736250662241      -0.009628710337624793    0.006448538426650435     0.03333719059564806
0.0774822703407662        -0.006789796776619226    -0.007281112368111877    4.1519823914758664E-4    -0.033762137700983755    -0.006602950594506857    0.009924536507687539     -0.03708372361416442     0.03708372361416442      -0.009924536507687539    0.006602950594506857     0.033762137700983755
0.07883737812626843       -0.00682053356120191     -0.007338270246122401    4.251087000592016E-4     -0.03395544306053423     -0.006673308815726602    0.010074178416200202     -0.03735631266100782     0.03735631266100782      -0.010074178416200202    0.006673308815726602     0.03395544306053423
0.08102376712601635       -0.006870125607250334    -0.007430491217079947    4.410986625931094E-4     -0.0342673302153681      -0.006786827786366766    0.010315617087111628     -0.03779611951611294     0.03779611951611294      -0.010315617087111628    0.006786827786366766     0.0342673302153681
0.08339981312913695       -0.0069261476007425465   -0.0075292718565436265   4.5673001193984963E-4    -0.0346131907233566      -0.006908600320386415    0.010562440415905198     -0.038267030818875364    0.038267030818875364     -0.010562440415905198    0.006908600320386415     0.0346131907233566
0.08485907747748396       -0.006954749985182163    -0.007588712183772985    4.676376243194381E-4     -0.034805086024405546    -0.006986086083676905    0.010727187078232394     -0.03854618701896103     0.03854618701896103      -0.010727187078232394    0.006986086083676905     0.034805086024405546
0.0850389654005163        -0.00695902843517713     -0.007595345141061178    4.6896857236854893E-4    -0.03482821800406362     -0.0069921042633551075   0.010743852842303486     -0.038579966583011986    0.038579966583011986     -0.010743852842303486    0.0069921042633551075    0.03482821800406362
0.08568719255058228       -0.0069779016829447284   -0.007625188689772146    4.733065303456281E-4     -0.03493814331382341     -0.007026536582044498    0.010812988824809508     -0.0387245955565884      0.0387245955565884       -0.010812988824809508    0.007026536582044498     0.03493814331382341
0.0877691835854882        -0.0070313764423740426   -0.00772170244704489     4.8732271052669726E-4    -0.03527856938377599     -0.007153063614279823    0.011051645298493389     -0.03917715106798954     0.03917715106798954      -0.011051645298493389    0.007153063614279823     0.03527856938377599
0.08850263405649263       -0.007044530187453157    -0.007753942821767243    4.929641866743715E-4     -0.03537903209351058     -0.007200911343697951    0.011144624837092911     -0.03932274558690553     0.03932274558690553      -0.011144624837092911    0.007200911343697951     0.03537903209351058
0.09055975330469078       -0.00708142268838929     -0.007844367871627317    5.087869172204964E-4     -0.03566080132277856     -0.007335110569221407    0.011405405906985366     -0.03973109666054251     0.03973109666054251      -0.011405405906985366    0.007335110569221407     0.03566080132277856
0.09191192566250711       -0.00711288133125583     -0.007916199492988276    5.182317931396742E-4     -0.035901433968917804    -0.007449908643894498    0.011595762989011882     -0.04004728831403518     0.04004728831403518      -0.011595762989011882    0.007449908643894498     0.035901433968917804
0.09224025804743692       -0.00711941460191294     -0.007932091735856482    5.206223183705054E-4     -0.03595261513791332     -0.007474956730261571    0.011639935277225602     -0.04011759368487734     0.04011759368487734      -0.011639935277225602    0.007474956730261571     0.03595261513791332
0.09511641561024738       -0.0071894596482435374   -0.008066031917171031    5.428552090061718E-4     -0.036405594211975506    -0.007647755619001365    0.011990597291050727     -0.04074843588402485     0.04074843588402485      -0.011990597291050727    0.007647755619001365     0.036405594211975506
0.09812974803529852       -0.00726142672177592     -0.00820436949773996     5.661066503519844E-4     -0.0368715353353638      -0.007825828448260129    0.012354681651075993     -0.04140038853817964     0.04140038853817964      -0.012354681651075993    0.007825828448260129     0.0368715353353638
0.0987184566019799        -0.0072752203455797235   -0.008231593752087965    5.705588749768899E-4     -0.03696298644751582     -0.007862105065196922    0.012426576065012032     -0.0415274574473309      0.0415274574473309       -0.012426576065012032    0.007862105065196922     0.03696298644751582
0.09903341819190084       -0.007282317321013742    -0.008246776604759436    5.729574052984492E-4     -0.037013134835112024    -0.007883865551057065    0.012467524793444647     -0.04159679407749958     0.04159679407749958      -0.012467524793444647    0.007883865551057065     0.037013134835112024
0.09922593467888949       -0.007286449073592896    -0.008256459548714887    5.744395851724815E-4     -0.03704451845264056     -0.007898722158268975    0.012494238839648817     -0.04164003513402037     0.04164003513402037      -0.012494238839648817    0.007898722158268975     0.03704451845264056
0.09923788223044147       -0.007286705489693728    -0.008257060471128818    5.745315690889309E-4     -0.037046466116418215    -0.007899644157643304    0.012495896710354741     -0.04164271866912962     0.04164271866912962      -0.012495896710354741    0.007899644157643304     0.037046466116418215
0.10000047882796037       -0.0073033392162903665   -0.008295995218519444    5.807603183929677E-4     -0.03717162281456722     -0.00795826594940576     0.01260434849654949      -0.04181770536171092     0.04181770536171092      -0.01260434849654949     0.00795826594940576      0.03717162281456722
0.10000904644656973       -0.007303526092846066    -0.00829643264253547     5.808302971322173E-4     -0.0371730289247697      -0.007958924553385443    0.012605566930443169     -0.0418196713018274      0.0418196713018274       -0.012605566930443169    0.007958924553385443     0.0371730289247697
0.10891253653408156       -0.007518722848675774    -0.008742628175637118    6.504171450746582E-4     -0.0386636616439643      -0.00858877024926121     0.013792107409858461     -0.04386699880456153     0.04386699880456153      -0.013792107409858461    0.00858877024926121      0.0386636616439643
0.11431542423008467       -0.00764672517116073     -0.00904347681077575     6.941120026983206E-4     -0.039647432763855454    -0.009060532079212539    0.014613428100799089     -0.04520032878544198     0.04520032878544198      -0.014613428100799089    0.009060532079212539     0.039647432763855454
0.11548112159044538       -0.0076747504160945374   -0.009109270785617317    7.040858911933662E-4     -0.039860969624267585    -0.009161967959889444    0.01479465508943636      -0.045493656753814476    0.045493656753814476     -0.01479465508943636     0.009161967959889444     0.039860969624267585
0.11834734326150162       -0.00774365900857954     -0.009271045293245506    7.286097310177549E-4     -0.0403860149728246      -0.009411378938506451    0.015240256786648476     -0.04621489282096661     0.04621489282096661      -0.015240256786648476    0.009411378938506451     0.0403860149728246
0.11879165487626223       -0.007753248754303577    -0.009295390583062113    7.32469834543045E-4      -0.04046278991962133     -0.00944979490240704     0.015309553578751387     -0.04632254859596565     0.04632254859596565      -0.015309553578751387    0.00944979490240704      0.04046278991962133
0.11921094529439984       -0.007762426065173033    -0.009320805562745707    7.362076988063847E-4     -0.04054243802335767     -0.009492733762665554    0.015382395353116616     -0.04643209961380871     0.04643209961380871      -0.015382395353116616    0.009492733762665554     0.04054243802335767
0.12255321149469385       -0.00784211554112413     -0.009519815518980634    7.649031052144779E-4     -0.04118406521833226     -0.009815603053835758    0.01593482789555157      -0.047303290060048055    0.047303290060048055     -0.01593482789555157     0.009815603053835758     0.04118406521833226
0.12729831289306376       -0.007955252742385253    -0.009802355078976423    8.056427126885501E-4     -0.0420949998709456      -0.010273988901404591    0.01671913060291298      -0.04854014157245397     0.04854014157245397      -0.01671913060291298     0.010273988901404591     0.0420949998709456
0.12895665402647805       -0.007993801699687426    -0.00990115218708121     8.197006287474296E-4     -0.04241225744562879     -0.010437050646879088    0.016994655676858515     -0.04896986247560819     0.04896986247560819      -0.016994655676858515    0.010437050646879088     0.04241225744562879
0.13140145120956845       -0.008049007668607805    -0.01005351992600305     8.42000028220014E-4      -0.042890575002344736    -0.01069454432791352     0.01743054455367362      -0.04962657522810481     0.04962657522810481      -0.01743054455367362     0.01069454432791352      0.042890575002344736
0.13188733238991854       -0.008059979352282396    -0.010083801626811061    8.464318308299715E-4     -0.04298563626167813     -0.01074571885254854     0.0175171734991883       -0.049757090908317855    0.049757090908317855     -0.0175171734991883      0.01074571885254854      0.04298563626167813
0.13326654789224313       -0.008093822303799873    -0.010177234728171322    8.586695649259938E-4     -0.043284670532409766    -0.010909381317210278    0.017778737836618215     -0.05015402705181768     0.05015402705181768      -0.017778737836618215    0.010909381317210278     0.043284670532409766
0.13450960098766473       -0.008121851212698187    -0.010260601463213174    8.696485249691893E-4     -0.04354691271515916     -0.011059507864366422    0.018016696064119923     -0.05050410091491264     0.05050410091491264      -0.018016696064119923    0.011059507864366422     0.04354691271515916
0.1361509507607731        -0.008159850420230043    -0.010374119220381912    8.851126647369163E-4     -0.04390160784265819     -0.011262206161738016    0.018343107479633334     -0.05098250916055348     0.05098250916055348      -0.018343107479633334    0.011262206161738016     0.04390160784265819
0.1395569962441563        -0.008246251388739377    -0.010593628997204375    9.172923216467417E-4     -0.04460422048250494     -0.011619214927547444    0.018957553500721366     -0.051942559055678836    0.051942559055678836     -0.018957553500721366    0.011619214927547444     0.04460422048250494
0.14275057217396284       -0.008330024643098718    -0.010825680153371322    9.471227456906372E-4     -0.04534859876354889     -0.012028500191154015    0.019605482156679104     -0.05292558072907395     0.05292558072907395      -0.019605482156679104    0.012028500191154015     0.04534859876354889
0.14527001334075612       -0.008382691699002668    -0.011000037409692152    9.703523705555617E-4     -0.04588408614485959     -0.012353319348848913    0.020116138313293397     -0.05364690510930403     0.05364690510930403      -0.020116138313293397    0.012353319348848913     0.04588408614485959
0.1472125707236871        -0.00842366511138631     -0.011136455711303738    9.894018571012235E-4     -0.046299089928278976    -0.012604429482733732    0.020519644339543508     -0.05421430478508872     0.05421430478508872      -0.020519644339543508    0.012604429482733732     0.046299089928278976
0.14722666009839405       -0.008423962291673064    -0.011137445153667287    9.895400230860618E-4     -0.04630209995200378     -0.012606250785311518    0.02052257097            -0.05421842013669223     0.05421842013669223      -0.02052257097           0.012606250785311518     0.04630209995200378
0.14727737743614933       -0.008425075910951927    -0.011141423466637192    9.90031948250266E-4      -0.0463142944288144      -0.012613990785006687    0.0205342463710088       -0.05423455001481649     0.05423455001481649      -0.0205342463710088      0.012613990785006687     0.0463142944288144
0.15068939889391048       -0.008499994923728047    -0.011409065456926737    0.0010231263354986107    -0.0471346808762419      -0.013134701181329705    0.02131971186531858      -0.05531969156023074     0.05531969156023074      -0.02131971186531858     0.013134701181329705     0.0471346808762419
0.1558536671508704        -0.008629973080278451    -0.011810022914179936    0.0010739113219757797    -0.048394369615193625    -0.013874477294079821    0.02246576786988604      -0.05698566019099984     0.05698566019099984      -0.02246576786988604     0.013874477294079821     0.048394369615193625
0.1558678455199262        -0.00863034096633715     -0.011811106282576684    0.001074051733913006     -0.04839779384475237     -0.013876429979403766    0.022468843850707795     -0.05699020771605639     0.05699020771605639      -0.022468843850707795    0.013876429979403766     0.04839779384475237
0.15727347878926903       -0.008666812924529017    -0.011918510643080181    0.0010879720719717048    -0.0487372694904118      -0.014070017792295726    0.022773794368069342     -0.05744104606618541     0.05744104606618541      -0.022773794368069342    0.014070017792295726     0.0487372694904118
0.15752808894685894       -0.00867352200567053     -0.011939766728961458    0.0010905801992759352    -0.048804023401121735    -0.014109935378439607    0.022834576972647076     -0.05752866499532917     0.05752866499532917      -0.022834576972647076    0.014109935378439607     0.048804023401121735
0.16048656580760315       -0.008732037136774163    -0.012162702055027903    0.0011198454683512995    -0.049472798565226885    -0.014544650018130222    0.023503413764940605     -0.058431562312037236    0.058431562312037236     -0.023503413764940605    0.014544650018130222     0.049472798565226885
0.16259333076847562       -0.008770066573639847    -0.012357700447896169    0.001141506684660452     -0.05004720775232645     -0.014966941457767047    0.024098994935050647     -0.05917926122961002     0.05917926122961002      -0.024098994935050647    0.014966941457767047     0.05004720775232645
0.16368411254343895       -0.008795235037062747    -0.012446652652775291    0.0011528633132034893    -0.050318974779637454    -0.015138034631386455    0.024360941137014352     -0.05954188128526534     0.05954188128526534      -0.024360941137014352    0.015138034631386455     0.050318974779637454
0.16492968244957426       -0.00882397504844063     -0.012548227680910995    0.0011658315118597607    -0.05062930709217526     -0.015333406898412724    0.024660058993290792     -0.0599559591870533      0.0599559591870533       -0.024660058993290792    0.015333406898412724     0.05062930709217526
0.16514282568039407       -0.008829457172035492    -0.012565348693322093    0.0011679877034395155    -0.05068300961027926     -0.015365180922137272    0.024709082549653375     -0.06002691123779534     0.06002691123779534      -0.024709082549653375    0.015365180922137272     0.05068300961027926
0.16529696247291578       -0.008833155326239146    -0.012580381619304692    0.001169607049229765     -0.05072902731347337     -0.015396406008516769    0.02475326240235487      -0.06008588370731145     0.06008588370731145      -0.02475326240235487     0.015396406008516769     0.05072902731347337
0.16641322669758185       -0.008860243623985062    -0.012683676518293423    0.0011813040454915855    -0.051046300620884104    -0.015605326124943846    0.02505575848887651      -0.060496732984816746    0.060496732984816746     -0.02505575848887651     0.015605326124943846     0.051046300620884104
0.16872301703708534       -0.008916295127799786    -0.012897415841414283    0.0012055076420682323    -0.05170280721156953     -0.016037626700370382    0.02568168783691623      -0.06134686834811535     0.06134686834811535      -0.02568168783691623     0.016037626700370382     0.05170280721156953
0.17173561812067156       -0.0089714035925844      -0.013176697319162682    0.0012369128682670877    -0.05252524766958854     -0.01663963329925093     0.02653493624538762      -0.0624205506157252      0.0624205506157252       -0.02653493624538762     0.01663963329925093      0.05252524766958854
0.17384080250147516       -0.009023432817495736    -0.01337836420241256     0.0012591263436008105    -0.053145452867825946    -0.017051721597843       0.027124732346649465     -0.06321846361663239     0.06321846361663239      -0.027124732346649465    0.017051721597843        0.053145452867825946
0.1773641750126553        -0.009108184960680004    -0.01370262273836953     0.001296582960182235     -0.054137906295739696    -0.017705166453019672    0.028077830134477535     -0.06451056997719753     0.06451056997719753      -0.028077830134477535    0.017705166453019672     0.054137906295739696
0.17796076472343286       -0.00912253548888264     -0.013757527323555988    0.0013029252450193081    -0.05430595196835606     -0.01781581001282549     0.028239211972979936     -0.06472935392851048     0.06472935392851048      -0.028239211972979936    0.01781581001282549      0.05430595196835606
0.1787215083457815        -0.00913649913149998     -0.013836167076652332    0.0013111336545008421    -0.05453696487495363     -0.0179909683489537      0.02848003758496042      -0.06502603411096033     0.06502603411096033      -0.02848003758496042     0.0179909683489537       0.05453696487495363
0.18163804554257112       -0.009180661973552467    -0.014140947255089199    0.0013434462739023037    -0.05541038061676336     -0.01868773272255348     0.029435302913771895     -0.06615795080798174     0.06615795080798174      -0.029435302913771895    0.01868773272255348      0.05541038061676336
0.18277241778097433       -0.009197838885284802    -0.014259489947983685    0.0013560141020923424    -0.05575009120615133     -0.018958735665012112    0.029806848481750834     -0.06659820402289002     0.06659820402289002      -0.029806848481750834    0.018958735665012112     0.05575009120615133