% Model:              Cylinder_slice_potential_4.mph
% Version:            COMSOL 6.2.0.415
% Date:               May 17 2024, 21:55
% Dimension:          1
% Nodes:              829
% Expressions:        11
% Description:        Line graph
% Arc length (m)          Magnetic scalar potential Magnetic scalar potential Magnetic scalar potential Magnetic scalar potential Magnetic scalar potential Magnetic scalar potential Magnetic scalar potential Magnetic scalar potential Magnetic scalar potential Magnetic scalar potential Magnetic scalar potential
0                         -2.716330183859299E-7    -1.123779915679147E-7    -1.2439317680978832E-7   -1.377972718721011E-6    -2.91440645155402E-7     -7.037047692713135E-7    -3.828273042707684E-7    3.828273042707684E-7     7.037047692635208E-7     2.91440645155402E-7      1.377972718721011E-6
8.925683485335008E-4      -2.7192887478097054E-7   -4.7712683544207584E-5   -1.2251060910883798E-7   -1.4417195081862694E-4   -1.430842353194809E-4    1.4210415044666098E-4    -1.4319186594578332E-4   1.4319186594578332E-4    -1.42104150446669E-4     1.430842353194809E-4     1.4417195081862694E-4
0.0027130246220881692     -2.776199140255191E-7    -1.4479790442497147E-4   -1.1893634146635E-7      -4.3542469846883844E-4   -4.3431421881271414E-4   4.3336272808103303E-4    -4.3447320773713343E-4   4.3447320773713343E-4    -4.3336272808104106E-4   4.3431421881271414E-4    4.3542469846883844E-4
0.0037225200258046934     -2.7436458047846193E-7   -1.9863437111977832E-4   -1.189341704991118E-7    -5.969275792022965E-4    -5.958301208803604E-4    5.948786475164164E-4     -5.959761058383284E-4    5.959761058383284E-4     -5.948786475164245E-4    5.958301208803604E-4     5.969275792022965E-4
0.007690721118652433      -2.7672174306113124E-7   -4.1025283627691095E-4   -1.1705693720898547E-7   -0.001231780180065702    -0.001230673293093435    0.0012297368375958078    -0.0012308437245680498   0.0012308437245680498    -0.0012297368375958156   0.001230673293093435     0.001231780180065702
0.010847013368261785      -2.666898728052717E-7    -5.785594823428547E-4    -1.2010252558094488E-7   -0.00173669223687651     -0.0017356254773852663   0.0017346646571806627    -0.0017357314166718811   0.0017357314166718811    -0.0017346646571806705   0.0017356254773852663    0.00173669223687651
0.012438765818194586      -2.6163069171737403E-7   -6.634383512906198E-4    -1.2163844886341785E-7   -0.0019913248690507594   -0.0019902783462838673   0.001989305238693004     -0.0019903517614598713   0.0019903517614598713    -0.001989305238693012    0.0019902783462838673    0.0019913248690507594
0.013240818191906156      -2.651703373914748E-7    -7.062186765502904E-4    -1.1181281241960198E-7   -0.002119633621575344    -0.0021185729402257557   0.002117678437726443     -0.002118739119076006    0.002118739119076006     -0.002117678437726451    0.0021185729402257557    0.002119633621575344
0.015362663428569208      -2.745345392307137E-7    -8.193948634806612E-4    -8.58188990930418E-8     -0.0024590769351168287   -0.0024579787969598835   0.0024572922457671838    -0.002458390383924103    0.002458390383924103     -0.0024572922457671916   0.0024579787969598835    0.0024590769351168287
0.020519049494690404      -2.6531276176478165E-7   -0.0010944146694469635   -9.020841328797193E-8    -0.003284135467517581    -0.0032830742164705017   0.0032823525491642463    -0.0032834138002113015   0.0032834138002113015    -0.0032823525491642545   0.0032830742164705017    0.003284135467517581
0.02557380403027825       -2.4826919895556846E-7   -0.00136406536888258     -8.878437993197232E-8    -0.004093047782565387    -0.004092054705769545    0.00409134443073014      -0.0040923375075259585   0.0040923375075259585    -0.004091344430730148    0.004092054705769545     0.004093047782565387
0.02607171945315858       -2.4659033349848554E-7   -0.0013906271417825666   -8.8644106419899E-8      -0.004172729182440383    -0.0041717428211063695   0.004171033668255061     -0.004172020029589051    0.004172020029589051     -0.004171033668255069    0.0041717428211063695    0.004172729182440383
0.030585244656404557      -2.2768127829118326E-7   -0.0016314583698967692   -8.381506093883637E-8    -0.004895165732490651    -0.004894255007377469    0.00489358448689001      -0.004894495212003171    0.004894495212003171     -0.004893584486890018    0.004894255007377469     0.004895165732490651
0.03112733255347348       -2.2541024411918504E-7   -0.0016603829217975907   -8.323507811126642E-8    -0.004981932526193462    -0.004981030885216968    0.004980365004592129     -0.004981266645568602    0.004981266645568602     -0.004980365004592137    0.004981030885216968     0.004981932526193462
0.03280229078382694       -2.2462447207850236E-7   -0.0017497354616800823   -8.153604587899443E-8    -0.005249981778167926    -0.005249083280279596    0.005248430991912616     -0.005249329489800925    0.005249329489800925     -0.005248430991912624    0.005249083280279596     0.005249981778167926
0.03309020018821271       -2.2553257261055638E-7   -0.0017650899195954322   -8.219116334395368E-8    -0.005296049588584899    -0.005295147458294441    0.005294489928987742     -0.00529539205927818     0.00529539205927818      -0.005294489928987749    0.005295147458294441     0.005296049588584899
0.03358461504079792       -2.270920159072327E-7    -0.0017914574919327768   -8.331616933517902E-8    -0.005375159924507491    -0.005374251556443845    0.005373585027089217     -0.005374493395152842    0.005374493395152842     -0.005373585027089225    0.005374251556443845     0.005375159924507491
0.03434658449335519       -2.2668349032792788E-7   -0.0018321120723896868   -8.303791166007451E-8    -0.005497121735796361    -0.005496215001835033    0.005495550698541806     -0.005496457432503113    0.005496457432503113     -0.005495550698541814    0.005496215001835033     0.005497121735796361
0.03483292435750683       -2.2642274198153784E-7   -0.0018580605445629457   -8.286030900231653E-8    -0.005574965920408815    -0.005574060229440872    0.005573397346968907     -0.005574303037936828    0.005574303037936828     -0.0055733973469689144   0.005574060229440872     0.005574965920408815
0.038520867769336775      -2.193010863355162E-7    -0.002054821199470939    -6.58490181466192E-8     -0.00616516559665808     -0.006164288392312723    0.006163761600167602     -0.006164638804512939    0.006164638804512939     -0.00616376160016761     0.006164288392312723     0.00616516559665808
0.04347997726209295       -1.9345969859641205E-7   -0.0023194580183097707   -9.364418712629432E-8    -0.006959135551075016    -0.006958361712280616    0.006957612558783656     -0.006958386397578039    0.006958386397578039     -0.0069576125587836645   0.006958361712280616     0.006959135551075016
0.04714998661589875       -1.927763046630232E-7    -0.002515341249611566    -1.1880866679207226E-7   -0.0075468845361112      -0.007546113430892532    0.007545162961558245     -0.007545934066776894    0.007545934066776894     -0.007545162961558253    0.007546113430892532     0.0075468845361112
0.048899146331826404      -1.924505929213878E-7    -0.0026087009727587384   -1.308022858432131E-7    -0.007827011028605438    -0.007826241226233738    0.00782519480794704      -0.007825964610318724    0.007825964610318724     -0.007825194807947048    0.007826241226233738     0.007827011028605438
0.05033015345756736       -1.9516493687068732E-7   -0.0026850724565290482   -1.4975258515874523E-7   -0.00805620670980153     -0.008055426050054031    0.00805422802937281      -0.008055008689120291    0.008055008689120291     -0.008054228029372818    0.008055426050054031     0.00805620670980153
0.051644257231298646      -2.1065968153192072E-7   -0.0027552350052540107   -1.4512426746577877E-7   -0.008266706832194968    -0.008265864193468824    0.008264703199329147     -0.008265545838055272    0.008265545838055272     -0.008264703199329156    0.008265864193468824     0.008266706832194968
0.05700190149518811       -2.3728134446578206E-7   -0.0030412614315284917   -1.0504982512660913E-7   -0.009124679056574922    -0.009123729931197044    0.00912288953259608      -0.009123838657973938    0.009123838657973938     -0.009122889532596089    0.009123729931197044     0.009124679056574922
0.057212655601210576      -2.3592487460386414E-7   -0.0030525125206277803   -1.0558250273320484E-7   -0.009158431741643491    -0.00915748804214506     0.009156643382123244     -0.009157587081621656    0.009157587081621656     -0.009156643382123252    0.00915748804214506      0.009158431741643491
0.06079765284947007       -2.128508723259262E-7    -0.003243897278069105    -1.146435255046366E-7    -0.009732576110053993    -0.009731724706564675    0.009730807558360689     -0.009731658961849986    0.009731658961849986     -0.009730807558360697    0.009731724706564675     0.009732576110053993
0.062250109102292076      -2.069355725997395E-7    -0.0033214565845178265   -1.1982439132876013E-7   -0.009965262922264004    -0.00996443517997359     0.009963476584843011     -0.009964304327133404    0.009964304327133404     -0.009963476584843018    0.00996443517997359      0.009965262922264004
0.06900329258355953       -2.0798452392848727E-7   -0.0036820800527387317   -1.3416596510788742E-7   -0.011047192791124493    -0.011046360853028764    0.01104528752530795      -0.011046119463403658    0.011046119463403658     -0.01104528752530796     0.011046360853028764     0.011047192791124493
0.07591838771501895       -2.2072108206735552E-7   -0.004051335893708152    -1.0056433417056914E-7   -0.012154851380625283    -0.012153968496296998    0.012153163981623683     -0.012154046865951947    0.012154046865951947     -0.012153163981623694    0.012153968496296998     0.012154851380625283
0.08467085339514153       -2.0996905967816867E-7   -0.004518690591499802    -2.3163815184107157E-7   -0.013557418265226138    -0.01355657838898741     0.013554725283772731     -0.013555565160011435    0.013555565160011435     -0.013554725283772742    0.01355657838898741      0.013557418265226138
0.08611277176327715       -2.0711187532449502E-7   -0.0045956873165625455   -2.462768206096729E-7    -0.013788461280720735    -0.013787632833219423    0.013785662618654595     -0.013786491066155883    0.013786491066155883     -0.013785662618654604    0.013787632833219423     0.013788461280720735
0.08668647122007338       -2.0530022180063526E-7   -0.004626321635015196    -2.5632016358997165E-7   -0.01388040078614356     -0.013879579585256343    0.013877529023947672     -0.013878350224834865    0.013878350224834865     -0.013877529023947682    0.013879579585256343     0.01388040078614356
0.09113828705820401       -1.858565529618323E-7    -0.004864019735707906    -2.92424499914957E-7     -0.01459360061822931     -0.01459285719201745     0.014590517796018176     -0.014591261222230017    0.014591261222230017     -0.014590517796018188    0.01459285719201745      0.01459360061822931
0.09203492906478426       -1.819038176809989E-7    -0.004911895017244639    -2.9979158056572486E-7   -0.014737248025691556    -0.014736520410420817    0.014734122077776336     -0.01473484969304705     0.01473484969304705      -0.01473412207777635     0.014736520410420817     0.014737248025691556
0.10182046936561069       -2.049946662004178E-7    -0.005434205209741745    -1.6662533354312358E-7   -0.016303692119891817    -0.016302872141227012    0.016301539138558703     -0.016302359117223494    0.016302359117223494     -0.016301539138558717    0.016302872141227012     0.016303692119891817
0.10585031498847328       -2.1348182731534358E-7   -0.005649339950789125    -1.1839563026763806E-7   -0.016948920398543083    -0.016948066471233824    0.016947119306191714     -0.016947973233500963    0.016947973233500963     -0.01694711930619173     0.016948066471233824     0.016948920398543083
0.10655543322695654       -2.1496685990842824E-7   -0.005686982938595722    -1.0995668580206741E-7   -0.0170618185762502      -0.017060958708810563    0.01706007905532418      -0.0170609389227638      0.0170609389227638       -0.017060079055324192    0.017060958708810563     0.0170618185762502
0.10771550977640702       -2.1807694237294784E-7   -0.00574890966028452     -1.0264567343436559E-7   -0.01724757571743205     -0.01724670340966256     0.017245882244275115     -0.017246754552044597    0.017246754552044597     -0.017245882244275132    0.01724670340966256      0.01724757571743205
0.10814281040261652       -2.1633504046547E-7      -0.005771691006020292    -9.37528500279633E-8     -0.017315880699541927    -0.01731501535938006     0.01731426533657987      -0.017315130676741723    0.017315130676741723     -0.017314265336579884    0.01731501535938006      0.017315880699541927
0.10828143965026239       -2.1557641401449135E-7   -0.005779084325779549    -9.394323979554722E-8    -0.017338059903125865    -0.017337197597469805    0.017336446051551473     -0.01733730835720752     0.01733730835720752      -0.017336446051551487    0.017337197597469805     0.017338059903125865
0.10859250071794856       -2.1387418192550295E-7   -0.005795673710610766    -9.437044289581334E-8    -0.017387826361967736    -0.017386970865240034    0.0173862159016969       -0.01738707139842459     0.01738707139842459      -0.01738621590169691     0.017386970865240034     0.017387826361967736
0.10867604691811876       -2.1365817070171582E-7   -0.005800131743581861    -8.884543197164724E-8    -0.01740117792881488     -0.017400323296132073    0.017399612532676332     -0.01740046716535913     0.01740046716535913      -0.017399612532676346    0.017400323296132073     0.01740117792881488
0.10876724579278568       -2.1342237325694077E-7   -0.005804998123972157    -8.281434045864909E-8    -0.017415752474024826    -0.017414898784531795    0.017414236269808158     -0.017415089959301175    0.017415089959301175     -0.017414236269808172    0.017414898784531795     0.017415752474024826
0.11026997180107079       -2.017735454007012E-7    -0.005885153075979967    -1.631925983385116E-7    -0.01765651554542406     -0.01765570845124246     0.01765440291045578      -0.01765521000463737     0.01765521000463737      -0.017654402910455794    0.01765570845124246      0.01765651554542406
0.11062618177851263       -2.0083322684326691E-7   -0.0059041492484685956   -1.64184062539071E-7     -0.017713506148109633    -0.01771270281520226     0.01771138934270198      -0.017712192675609337    0.017712192675609337     -0.017711389342701993    0.01771270281520226      0.017713506148109633
0.11768710747243002       -1.821938852100509E-7    -0.0062806983933698796   -1.8383723199443812E-7   -0.018843194916808043    -0.018842466141267195    0.018840995443411276     -0.01884172421895211     0.01884172421895211      -0.01884099544341129     0.018842466141267195     0.018843194916808043
0.11794528622818883       -1.821426547175058E-7    -0.006294460442604099    -1.650190607969686E-7    -0.01888440568936493     -0.01888367711874605     0.01888235696625971      -0.018883085536878574    0.018883085536878574     -0.018882356966259728    0.01888367711874605      0.01888440568936493
0.11851056961707496       -1.8077531193562914E-7   -0.006324550410397589    -1.6676142692160687E-7   -0.018974679827524335    -0.018973956726276588    0.018972622634861245     -0.018973345736108985    0.018973345736108985     -0.018972622634861266    0.018973956726276588     0.018974679827524335
0.12005390666848406       -1.7704219184259323E-7   -0.006406702058729069    -1.7151843597227016E-7   -0.019221146334314793    -0.019220438165547415    0.01921906601805967      -0.019219774186827035    0.019219774186827035     -0.019219066018059682    0.019220438165547415     0.019221146334314793
0.12457586742823296       -1.6726155760120732E-7   -0.006647414452505151    -1.8325047933612233E-7   -0.019943310882548016    -0.019942641836317606    0.01994117583248295      -0.019941844878713345    0.019941844878713345     -0.019941175832482963    0.019942641836317606     0.019943310882548016
0.12511646918821093       -1.6837912237894668E-7   -0.006676205961056509    -1.5991283205717105E-7   -0.020029594292742526    -0.020028920776253005    0.02002764147359658      -0.020028314990086084    0.020028314990086084     -0.02002764147359659     0.020028920776253005     0.020029594292742526
0.12642801642031437       -1.7109043244015724E-7   -0.006746056683240898    -1.032936551352414E-7    -0.02023892540520813     -0.02023824104347836     0.020237414694237312     -0.020238099055967063    0.020238099055967063     -0.02023741469423733     0.02023824104347836      0.02023892540520813
0.12798890399718627       -1.786788796341666E-7    -0.006829077236509476    -9.792102612282204E-8    -0.0204879807513922      -0.020487266035873655    0.02048648266766471      -0.020487197383183234    0.020487197383183234     -0.020486482667664722    0.020487266035873655     0.0204879807513922
0.12896959849158465       -1.8169949224672858E-7   -0.006881204944283802    -5.54146373442694E-8     -0.020644199890385295    -0.0206434730924163      0.02064302977531758      -0.020643756573286556    0.020643756573286556     -0.020643029775317595    0.0206434730924163       0.020644199890385295
0.129560193167948         -1.821463526380224E-7    -0.006912606152828765    -3.545169173951463E-8    -0.02073832455795855     -0.020737595972547984    0.020737312359014104     -0.02073804094442465     0.02073804094442465      -0.02073731235901412     0.020737595972547984     0.02073832455795855
0.1298421254276772        -1.823596704427947E-7    -0.006927596151956124    -2.5921977723306E-8      -0.020783256863120166    -0.020782527424438386    0.020782320048616635     -0.020783049487298394    0.020783049487298394     -0.02078232004861665     0.020782527424438386     0.020783256863120166
0.13102806282137677       -1.9341273600124954E-7   -0.006990661359035144    -5.85737182830711E-8     -0.020972605197450585    -0.02097183154650657     0.02097136295676034      -0.020972136607704334    0.020972136607704334     -0.020971362956760352    0.02097183154650657      0.020972605197450585
0.13434700356519858       -1.6900849189833771E-7   -0.007167114503871784    -1.8484973466858815E-7   -0.02150242092753784     -0.021501744893570235    0.021500266095692923     -0.021500942129660507    0.021500942129660507     -0.021500266095692937    0.021501744893570235     0.02150242092753784
0.13593785460834795       -1.5980837265860964E-7   -0.007251693974363644    -2.3669929761352183E-7   -0.021756348337026717    -0.021755709103536077    0.021753815509155203     -0.02175445474264583     0.02175445474264583      -0.021753815509155217    0.021755709103536077     0.021756348337026717
0.1372706262515801        -1.5210076352085338E-7   -0.0073225523494180305   -2.8013744822124006E-7   -0.02196908179957404     -0.021968473396519948    0.02196623229693421      -0.021966840699988284    0.021966840699988284     -0.02196623229693422     0.021968473396519948     0.02196908179957404
0.13844104630187506       -1.4427294414231482E-7   -0.007384607665981844    -2.8761323086389953E-7   -0.022155261996757297    -0.022154684904980713    0.02215238399913384      -0.022152961090910396    0.022152961090910396     -0.022152383999133843    0.022154684904980713     0.022155261996757297
0.14020566603902745       -1.4988056636608177E-7   -0.007478201130824355    -4.36348210400992E-7     -0.022436648546447422    -0.022436049024181948    0.022432558238498775     -0.022433157760764225    0.022433157760764225     -0.022432558238498785    0.022436049024181948     0.022436648546447422
0.1439590098906536        -1.6566163428725038E-7   -0.0076775656116555065   -4.161752752389029E-7    -0.023034692859336063    -0.023034030212798907    0.023030700810597028     -0.023031363457134166    0.023031363457134166     -0.02303070081059704     0.023034030212798907     0.023034692859336063
0.14727940629023173       -1.854706771726647E-7    -0.007853640192831392    -1.534081169752743E-7    -0.02356190515231644     -0.02356116326960774     0.023559936004671964     -0.023560677887380647    0.023560677887380647     -0.023559936004671978    0.02356116326960774      0.02356190515231644
0.14737896186761945       -1.860646124938369E-7    -0.00785891944400589     -1.4552955881191667E-7   -0.023577712579477918    -0.023576968321027937    0.02357580408455747      -0.023576548343007438    0.023576548343007438     -0.023575804084557485    0.023576968321027937     0.023577712579477918
0.15254100038154844       -1.3982600931605396E-7   -0.008131487124004785    3.84699209631666E-7      -0.02439320222719448     -0.024392642923157216    0.024395720516834297     -0.02439627982087155     0.02439627982087155      -0.024395720516834307    0.024392642923157216     0.02439320222719448
0.15259607328312827       -1.3933269760689064E-7   -0.00813439510172985     3.903561292188582E-7     -0.024401902546067902    -0.024401345215277474    0.024404468064311253     -0.024405025395101667    0.024405025395101667     -0.024404468064311263    0.024401345215277474     0.024401902546067902
0.15528510359927927       -1.5075672584348974E-7   -0.008276753663302138    -2.1847781657667046E-7   -0.02483143641462443     -0.024830833387721046    0.024829085565188466     -0.024829688592091823    0.024829688592091823     -0.024829085565188473    0.024830833387721046     0.02483143641462443
0.15748729748365883       -1.8465667932710992E-7   -0.008393091290136453    -2.6737052740821154E-7   -0.025180712665877666    -0.025179974039160353    0.02517783507494112      -0.025178573701658415    0.025178573701658415     -0.02517783507494113     0.025179974039160353     0.025180712665877666
0.16520816462730387       -1.8828873804432352E-7   -0.008799225972394983    -2.567324940354159E-7    -0.026399081424637205    -0.026398328269685023    0.02639627440973277      -0.026397027564684934    0.026397027564684934     -0.026396274409732783    0.026398328269685023     0.026399081424637205
0.16605107310472952       -1.8868525996674368E-7   -0.008843564821941707    -2.555711104308424E-7    -0.0265320941207868      -0.026531339379746936    0.02652929481086351      -0.026530049551903363    0.026530049551903363     -0.02652929481086353     0.026531339379746936     0.0265320941207868
0.16675110026438145       -1.8840334097778647E-7   -0.008880412016373468    -2.566689434924077E-7    -0.026642639531576345    -0.026641885918212437    0.026639832566664516     -0.026640586180028413    0.026640586180028413     -0.026639832566664537    0.026641885918212437     0.026642639531576345
0.16698415813572542       -1.9526938108376505E-7   -0.008892679415757129    -2.5144516617969595E-7   -0.02667943456669829     -0.026678653489173962    0.026676641927844545     -0.026677423005368864    0.026677423005368864     -0.026676641927844566    0.026678653489173962     0.02667943456669829
0.16701804283719981       -1.9607089447530428E-7   -0.008894464222543879    -2.555084343062768E-7    -0.026684806843157834    -0.026684022559579933    0.026681978492105504     -0.02668276277568339     0.02668276277568339      -0.026681978492105525    0.026684022559579933     0.026684806843157834
0.1675956330996982        -2.0973329402696503E-7   -0.008924887598746465    -3.2476990044639253E-7   -0.026776381342429264    -0.026775542409253155    0.02677294425004961      -0.0267737831832257      0.0267737831832257       -0.026772944250049627    0.026775542409253155     0.026776381342429264
0.16762607303498564       -2.0999857203944972E-7   -0.008926482592718972    -3.3041775143668944E-7   -0.02678118944630677     -0.026780349452018612    0.02677770611000714      -0.026778546104295285    0.026778546104295285     -0.026777706110007158    0.026780349452018612     0.02678118944630677
0.1679298596106794        -2.1264601193352647E-7   -0.008942400424100156    -3.8678256615031364E-7   -0.02682917369458896     -0.026828323110541227    0.02682522885001205      -0.026826079434059763    0.026826079434059763     -0.026825228850012067    0.026828323110541227     0.02682917369458896
0.17288936375507305       -1.1006951662929378E-7   -0.009202537099666296    -2.9502715799075546E-7   -0.027609011546664133    -0.027608571268597615    0.02760621105133371      -0.02760665132940021     0.02760665132940021      -0.027606211051333724    0.027608571268597615     0.027609011546664133
0.1751144623225589        -2.394404851700359E-7    -0.009319412228367206    -2.8936865656718353E-7   -0.02795987304069825     -0.02795891527875757     0.027956600329505053     -0.02795755809144572     0.02795755809144572      -0.027956600329505067    0.02795891527875757      0.02795987304069825
0.1781468859481578        -1.4013142277594358E-7   -0.00947753048989106     -6.965406692393597E-7    -0.028435657895195716    -0.028435097369504607    0.02842952504415072      -0.02843008556984181     0.02843008556984181      -0.028429525044150736    0.028435097369504607     0.028435657895195716
0.1782427226225281        -1.3699286054000093E-7   -0.009482527657243847    -7.094089279027414E-7    -0.028450694593164256    -0.02845014662172209     0.028444471350298896     -0.02844501932174104     0.02844501932174104      -0.02844447135029891     0.02845014662172209      0.028450694593164256
0.1783314142338229        -1.3148097066895839E-7   -0.009487157059356635    -7.032210066383659E-7    -0.028464547024037824    -0.02846402110015514     0.02845839533210206      -0.02845892125598472     0.02845892125598472      -0.028458395332102072    0.02846402110015514      0.028464547024037824
0.1784305073979363        -1.331336271191527E-7    -0.009492336687215192    -6.978886976625945E-7    -0.028480067883690483    -0.028479535349182003    0.02847395223960073      -0.02847448477410918     0.02847448477410918      -0.02847395223960074     0.028479535349182003     0.028480067883690483
0.17884168313841842       -1.3388821286786373E-7   -0.009513832433188886    -6.771447508618558E-7    -0.02854447365499586     -0.028543938102144385    0.028538520944137516     -0.028539056496988967    0.028539056496988967     -0.028538520944137526    0.028543938102144385     0.02854447365499586
0.18138491087333392       -1.5829393813838365E-7   -0.009646741954833234    -4.917592020154919E-7    -0.02894250948918407     -0.02894187631343151     0.02893794223981541      -0.028938575415567946    0.028938575415567946     -0.028937942239815426    0.02894187631343151      0.02894250948918407
0.18186895305278827       -1.6293898045563438E-7   -0.009672038082916355    -4.564755253431413E-7    -0.029018266028811378    -0.029017614272889552    0.02901396246868683      -0.02901461422460863     0.02901461422460863      -0.02901396246868684     0.029017614272889552     0.029018266028811378
0.18562019399747082       -1.6804742272406175E-7   -0.0098666414131173      -2.403669588885029E-7    -0.02960122180203293     -0.029600549612342035    0.029598626676670944     -0.029599298866361826    0.029599298866361826     -0.029598626676670958    0.029600549612342035     0.02960122180203293
0.18563941711337378       -1.6807360077537913E-7   -0.009867638651744923    -2.3925951735599E-7      -0.029604209140505773    -0.029603536846102667    0.029601622769963844     -0.02960229506436693     0.02960229506436693      -0.029601622769963858    0.029603536846102667     0.029604209140505773
0.1869020071217249        -2.117315808867603E-7    -0.009933223738436706    -1.3080947228985437E-7   -0.02980061791636108     -0.029799770990037527    0.02979872451425923      -0.029799571440582758    0.029799571440582758     -0.02979872451425924     0.029799770990037527     0.02980061791636108
0.18692605135356102       -2.123779747660869E-7    -0.009934475224566376    -1.3325789134397033E-7   -0.029804383461214064    -0.029803533949314995    0.029802467886184267     -0.02980331739808331     0.02980331739808331      -0.029802467886184278    0.029803533949314995     0.029804383461214064
0.18802037191316467       -2.4179717669816085E-7   -0.009991433875235298    -2.446923230078115E-7    -0.029975763989351357    -0.029974796800644556    0.02997283926206052      -0.02997380645076729     0.02997380645076729      -0.029972839262060527    0.029974796800644556     0.029975763989351357
0.1888086968391099        -2.802198697778247E-7    -0.010032184880061166    -3.27362290942043E-7     -0.030098424529086856    -0.03009730364960774     0.030094684751280226     -0.030095805630759316    0.030095805630759316     -0.030094684751280236    0.03009730364960774      0.030098424529086856
0.18882725442833312       -2.8112436046638905E-7   -0.010033144180450006    -3.29308386080823E-7     -0.030101312023615302    -0.03010018752617344     0.030097553059084813     -0.030098677556526655    0.030098677556526655     -0.030097553059084823    0.03010018752617344      0.030101312023615302
0.1907827954324039        -3.323986076174092E-7    -0.010134461451346877    -2.0027722082560383E-7   -0.030404850260139196    -0.030403520665708728    0.03040191844794214      -0.03040324804237259     0.03040324804237259      -0.030401918447942156    0.030403520665708728     0.030404850260139196
0.19858790962799663       -3.7380768339561663E-7   -0.010537026909161636    -2.8691588222036115E-7   -0.03161297600638062     -0.03161148077564702     0.03160918544858928      -0.03161068067932284     0.03161068067932284      -0.03160918544858931     0.03161148077564702      0.03161297600638062
0.19941682473974442       -4.042474273681227E-7    -0.010579670080970478    -2.857228542310806E-7    -0.031740961629183134    -0.03173934463947365     0.03173705885663981      -0.031738675846349276    0.031738675846349276     -0.03173705885663984     0.03173934463947365      0.031740961629183134
0.20157948788270885       -4.667953204247526E-7    -0.01069074400056474     1.4443133521905728E-7    -0.032072587866994226    -0.032070720685712525    0.0320718761363943       -0.03207374331767598     0.03207374331767598      -0.03207187613639432     0.032070720685712525     0.032072587866994226