% Model:              Cylinder_slice_potential_2.mph
% Version:            COMSOL 6.2.0.339
% Date:               May 15 2024, 11:19
% Dimension:          1
% Nodes:              818
% Expressions:        11
% Description:        Line graph
% Arc length (m)          Magnetic scalar potential Magnetic scalar potential Magnetic scalar potential Magnetic scalar potential Magnetic scalar potential Magnetic scalar potential Magnetic scalar potential Magnetic scalar potential Magnetic scalar potential Magnetic scalar potential Magnetic scalar potential
0                         0.015719524063368833     -0.004847286294578746    -6.719367617498454E-7    0.016894501495954454     -0.045983594757520854    0.04597821926342684      0.016899876990048412     -0.016899876990048412    -0.04597821926342684     0.045983594757520854     -0.016894501495954454
6.372034163658044E-4      0.015712430125869453     -0.00488452301668537     2.0191044470340445E-5    0.016852055379564187     -0.04599766512391361     0.046159193479676314     0.016690527023801423     -0.016690527023801423    -0.046159193479676314    0.04599766512391361      -0.016852055379564187
0.0016494435362640941     0.015699908904189885     -0.00494408357593922     5.311808165230772E-5     0.016780039407171363     -0.046019596209588155    0.046444540862806596     0.016355094753952863     -0.016355094753952863    -0.046444540862806596    0.046019596209588155     -0.016780039407171363
0.0017868873172875192     0.01569820875022756      -0.004952170815619605    5.7588973883533636E-5    0.016770260949130457     -0.046022574051779744    0.046483285842848006     0.01630954915806215      -0.01630954915806215     -0.046483285842848006    0.046022574051779744     -0.016770260949130457
0.00882443670555844       0.015610857514060782     -0.005355233461337502    2.878110541770862E-4     0.01630725886081741      -0.04613617119542568     0.04843865962884235      0.014004770427400686     -0.014004770427400686    -0.04843865962884235     0.04613617119542568      -0.01630725886081741
0.008915518720854509      0.01560979958457729      -0.005360657384219553    2.907186018895658E-4     0.01630050142405419      -0.04613869691425493     0.04846444572937143      0.013974752608937631     -0.013974752608937631    -0.04846444572937143     0.04613869691425493      -0.01630050142405419
0.014130790609301655      0.01554922352159406      -0.00567122618795008     4.5720209261956613E-4    0.01591357684981615      -0.046283317236560054    0.04994093397751655      0.012255960108859593     -0.012255960108859593    -0.04994093397751655     0.046283317236560054     -0.01591357684981615
0.01657463744868299       0.015516299679381423     -0.005817817673104237    5.357332096382385E-4     0.015722079178003102     -0.046343119539522554    0.05062898521662843      0.011436213500897161     -0.011436213500897161    -0.05062898521662843     0.046343119539522554     -0.015722079178003102
0.016723567371191888      0.015514273136456274     -0.005826633436988721    5.405269640574931E-4     0.015710753818176368     -0.0463463387276487      0.050670554440108616     0.01138653810571639      -0.01138653810571639     -0.050670554440108616    0.0463463387276487       -0.015710753818176368
0.02029018743963119       0.015465740856679136     -0.0060377560902429624   6.553292846849087E-4     0.01543953058136903      -0.04642343284534749     0.05166606712282673      0.01019689630388973      -0.01019689630388973     -0.05166606712282673     0.04642343284534749      -0.01543953058136903
0.02127676102934454       0.015456027568295694     -0.006098790466333839    6.870368892376217E-4     0.015363831294540366     -0.04646027897864238     0.051956574092543326     0.009867536180639366     -0.009867536180639366    -0.051956574092543326    0.04646027897864238      -0.015363831294540366
0.0238358875418731        0.015430831745008831     -0.006257110830530074    7.69284957000308E-4      0.015167470826428687     -0.04655585615360662     0.05271013580960905      0.009013191170426198     -0.009013191170426198    -0.05271013580960905     0.04655585615360662      -0.015167470826428687
0.02762437780223751       0.015387619211106273     -0.0064870542280147025   8.875741730395873E-4     0.014864372430326803     -0.046686104414098276    0.05378669779841495      0.007763779046010081     -0.007763779046010081    -0.05378669779841495     0.046686104414098276     -0.014864372430326803
0.030314619439806626      0.015347762307681884     -0.006651794016418414    9.707584822459419E-4     0.014623176495092309     -0.04676787273563522     0.05453394059360272      0.006857108637124751     -0.006857108637124751    -0.05453394059360272     0.04676787273563522      -0.014623176495092309
0.031362387580078456      0.015332239243509963     -0.006715955205255156    0.001003156266794283     0.014529237938431604     -0.04679971903560823     0.05482496916996246      0.00650398780407732      -0.00650398780407732     -0.05482496916996246     0.04679971903560823      -0.014529237938431604
0.03582744563593235       0.015271342963751364     -0.0069887494014678805   0.0011431187470890558    0.014148912711455323     -0.04693645914355011     0.05608140912026252      0.005003962734742856     -0.005003962734742856    -0.05608140912026252     0.04693645914355011      -0.014148912711455323
0.038181229467202316      0.015250801830835412     -0.007134574413970175    0.0012168030376744866    0.013965092570458264     -0.04703811475288337     0.05677253905427923      0.0042306682690623505    -0.0042306682690623505   -0.05677253905427923     0.04703811475288337      -0.013965092570458264
0.03845966908983751       0.015248371928300765     -0.007151824707269202    0.0012255194821466538    0.01394334766338056      -0.047050140049822484    0.056854295906995686     0.004139191806207309     -0.004139191806207309    -0.056854295906995686    0.047050140049822484     -0.01394334766338056
0.04157514238329688       0.015198034319734748     -0.007346524113019705    0.0013182961477178935    0.013629680891281965     -0.047162456387657       0.05770882556940013      0.003083311709538798     -0.003083311709538798    -0.05770882556940013     0.047162456387657        -0.013629680891281965
0.04166377339167558       0.015196602282741865     -0.007352063048210909    0.0013209355185771637    0.013620757495159664     -0.04716565163580777     0.05773313578442506      0.0030532733465423356    -0.0030532733465423356   -0.05773313578442506     0.04716565163580777      -0.013620757495159664
0.04243339271117464       0.015187686175078766     -0.007402028631644666    0.0013448018289348336    0.013548493770962875     -0.047202250929352166    0.057960665560830814     0.0027900791394841872    -0.0027900791394841872   -0.057960665560830814    0.047202250929352166     -0.013548493770962875
0.04395125943644377       0.015169285948642142     -0.007498489611613122    0.0013870416563436887    0.013391269687819687     -0.047285874106748865    0.058382207357498356     0.0022949364370701587    -0.0022949364370701587   -0.058382207357498356    0.047285874106748865     -0.013391269687819687
0.050268748619516614      0.015091835997951861     -0.007903526866322936    0.0015792750715635595    0.012790191683189168     -0.04757715230861827     0.0602113528811267       1.5599111068067032E-4    -1.5599111068067032E-4   -0.0602113528811267      0.04757715230861827      -0.012790191683189168
0.05092645536670197       0.015083431564398618     -0.007946639150591324    0.0016007307348096878    0.012729868616262022     -0.04760385764133244     0.06040970351980989      -7.597726221550337E-5    7.597726221550337E-5     -0.06040970351980989     0.04760385764133244      -0.012729868616262022
0.05139646869200065       0.015077425550656904     -0.007977448243210375    0.0016160634764486592    0.012686760277477336     -0.04762294192515028     0.06055144973673951      -2.4174753411196375E-4   2.4174753411196375E-4    -0.06055144973673951     0.04762294192515028      -0.012686760277477336
0.054118075397916174      0.01503928364185012      -0.008151952046563665    0.0017007102041727386    0.01242555196070021      -0.04773158260670027     0.06133726424008212      -0.0011801296726817263   0.0011801296726817263    -0.06133726424008212     0.04773158260670027      -0.01242555196070021
0.05875632253831283       0.01498121072082191      -0.008458648024398706    0.0018402608788952563    0.011947520884028735     -0.04797732199925891     0.06269940903042093      -0.0027745661471333415   0.0027745661471333415    -0.06269940903042093     0.04797732199925891      -0.011947520884028735
0.0619016614405922        0.014942531127179921     -0.008667008824255385    0.0019350896515383915    0.01162439438774726      -0.048145730120972424    0.06362644733327952      -0.0038563228245598997   0.0038563228245598997    -0.06362644733327952     0.048145730120972424     -0.01162439438774726
0.06210057187740892       0.014939874731590938     -0.008680038014602343    0.0019410617529319713    0.011603882431102738     -0.04815561649526102     0.06368411051871675      -0.003924611592353063    0.003924611592353063     -0.06368411051871675     0.04815561649526102      -0.011603882431102738
0.06331367886666302       0.01492367401278104      -0.008759499917794388    0.0019774841652348604    0.011478784933118363     -0.0482159111180058      0.06403578443988465      -0.004341088388760547    0.004341088388760547     -0.06403578443988465     0.0482159111180058       -0.011478784933118363
0.06580275808465773       0.014890536192051173     -0.00892216046086908     0.0020508592045323736    0.01121802781962461      -0.04834411694858008     0.06475099058483905      -0.005188845816634408    0.005188845816634408     -0.06475099058483905     0.04834411694858008      -0.01121802781962461
0.06653944651563165       0.01488182908859193      -0.008971780110219598    0.002071828290817261     0.011135631009794117     -0.0483916853445736      0.06496631167111167      -0.005438995316744001    0.005438995316744001     -0.06496631167111167     0.0483916853445736       -0.011135631009794117
0.0677320225258539        0.014866102893515198     -0.009050964801109326    0.0021061549446404143    0.011003931162264087     -0.0484604804117967      0.06530971996891999      -0.005845308394859262    0.005845308394859262     -0.06530971996891999     0.0484604804117967       -0.011003931162264087
0.06863584852817284       0.014856131903694853     -0.009112897451304787    0.0021325813134749506    0.010903896707375163     -0.048520630907404244    0.06558128141520383      -0.006156753800424476    0.006156753800424476     -0.06558128141520383     0.048520630907404244     -0.010903896707375163
0.07017744734544187       0.014839437366991719     -0.009217378174117953    0.0021735457873891667    0.010720923361186257     -0.048636826106780606    0.06602519240589391      -0.006667442937927107    0.006667442937927107     -0.06602519240589391     0.048636826106780606     -0.010720923361186257
0.07307305127930747       0.014808079814293731     -0.009413625595043499    0.0022504898603126727    0.010377242284707662     -0.04885507697246726     0.06685899585496861      -0.007626676597793745    0.007626676597793745     -0.06685899585496861     0.04885507697246726      -0.010377242284707662
0.07727834593574935       0.014744528494948943     -0.009700808274118868    0.0023851171019933265    0.009927100575514597     -0.04905101340428117     0.06813195022022775      -0.009153836240432043    0.009153836240432043     -0.06813195022022775     0.04905101340428117      -0.009927100575514597
0.07744475412796945       0.014742013698477033     -0.009712172412512508    0.002390444451856274     0.009909287966841642     -0.04905876682706648     0.06818232244191663      -0.009214267648008579    0.009214267648008579     -0.06818232244191663     0.04905876682706648      -0.009909287966841642
0.07858326068319144       0.014727998189446192     -0.009789523530634184    0.0024247721283911037    0.009786514300554255     -0.049125478457230504    0.06852365548435929      -0.009611662726574604    0.009611662726574604     -0.06852365548435929     0.049125478457230504     -0.009786514300554255
0.0788611455936399        0.01472424734976765      -0.009808316851729419    0.002433066334892572     0.009755809483917344     -0.04914117991515325     0.06860571059429378      -0.00970872119522326     0.00970872119522326      -0.06860571059429378     0.04914117991515325      -0.009755809483917344
0.07910210793536541       0.014720994884166259     -0.009824613104205305    0.002440258490156143     0.009729184416341189     -0.04915479512032385     0.06867686304157294      -0.009792883504907984    0.009792883504907984     -0.06867686304157294     0.04915479512032385      -0.009729184416341189
0.07960257106032284       0.014713132517903736     -0.00985814582842417     0.0024553663231794906    0.009673292843252933     -0.04917923722836201     0.0688221678137979       -0.009969637742183018    0.009969637742183018     -0.0688221678137979      0.04917923722836201      -0.009673292843252933
0.08041261588035767       0.014704936983430311     -0.009914945019671299    0.002480161764200854     0.009585685964650148     -0.0492340619690711      0.0690753560826779       -0.010255608148956711    0.010255608148956711     -0.0690753560826779      0.0492340619690711       -0.009585685964650148
0.08466828431283685       0.014653052733344054     -0.010211183480211019    0.0026047448330160164    0.009091534358119126     -0.04952067657525708     0.07035863523938518      -0.01174642430600903     0.01174642430600903      -0.07035863523938518     0.04952067657525708      -0.009091534358119126
0.08607192460398826       0.014628416108577512     -0.010306616616642898    0.002643251859847562     0.008909989806616586     -0.04960367462769345     0.07074968950647394      -0.012236025072163939    0.012236025072163939     -0.07074968950647394     0.04960367462769345      -0.008909989806616586
0.08956836734255805       0.014586601613541271     -0.010555230934350958    0.0027406485695404274    0.00847010470219138      -0.04987630175197368     0.07180149030829708      -0.01345508385413206     0.01345508385413206      -0.07180149030829708     0.04987630175197368      -0.00847010470219138
0.09037919768132856       0.01457744015382355      -0.010613227910549916    0.002764329901118746     0.008372516180472349     -0.04993724443482184     0.07205188364377178      -0.013742123028477644    0.013742123028477644     -0.07205188364377178     0.04993724443482184      -0.008372516180472349
0.09046590082960156       0.014576460506957465     -0.010619429603045027    0.0027668621768673933    0.008362080912249437     -0.049943761115580416    0.07207865853051953      -0.013772816502689736    0.013772816502689736     -0.07207865853051953     0.049943761115580416     -0.008362080912249437
0.0915323939747748        0.014558693782854694     -0.010693985254314078    0.00279604712418906      0.008219620299523403     -0.05001515483189536     0.0723835318254078       -0.014148756693989106    0.014148756693989106     -0.0723835318254078      0.05001515483189536      -0.008219620299523403
0.09158047632636991       0.01455789277829234      -0.010697346561467284    0.002797362914079276     0.00821319752849994      -0.0500183735846694      0.07239727689730358      -0.014165705784134293    0.014165705784134293     -0.07239727689730358     0.0500183735846694       -0.00821319752849994
0.09254127814765366       0.014542983926926776     -0.01076401037575997     0.002825635727805932     0.008096479637797383     -0.05007545606990971     0.07268054189235712      -0.014508606184650094    0.014508606184650094     -0.07268054189235712     0.05007545606990971      -0.008096479637797383
0.09349346840114352       0.014528903855573812     -0.010831728509246932    0.0028525071061776463    0.007972650608117422     -0.05014296481417782     0.07296302166359894      -0.014847406241303767    0.014847406241303767     -0.07296302166359894     0.05014296481417782      -0.007972650608117422
0.09397296980217376       0.014522365955824039     -0.010865576402917574    0.0028670360787425046    0.00791614701786538      -0.05017331680543077     0.07310960543537076      -0.015020141612074673    0.015020141612074673     -0.07310960543537076     0.05017331680543077      -0.00791614701786538
0.0951606041840017        0.014506172813299138     -0.010949411240916673    0.002903021598938245     0.007776198299601243     -0.0502484929535953      0.07347266574510122      -0.015447974491904735    0.015447974491904735     -0.07347266574510122     0.0502484929535953       -0.007776198299601243
0.09614899236523594       0.014495178865674821     -0.011021345752218664    0.002930754828561453     0.007649339788939476     -0.05033137567375981     0.0737774143022514       -0.01579669883955217     0.01579669883955217      -0.0737774143022514      0.05033137567375981      -0.007649339788939476
0.09735320309876412       0.014481784300680613     -0.011108987745785191    0.002964543833146642     0.0074947806965922365    -0.050432356506130226    0.07414870717130331      -0.016221569968580922    0.016221569968580922     -0.07414870717130331     0.050432356506130226     -0.0074947806965922365
0.09901063169131902       0.014461284693232598     -0.011228112176168398    0.0030114829022181294    0.007284164466832527     -0.05056097430609787     0.07465283752384286      -0.01680769875091253     0.01680769875091253      -0.07465283752384286     0.05056097430609787      -0.007284164466832527
0.10003462674975067       0.01444663029441564      -0.011301111251083858    0.0030418221381743205    0.007157215388276996     -0.05062930578938557     0.07496388289478008      -0.01717736171711759     0.01717736171711759      -0.07496388289478008     0.05062930578938557      -0.007157215388276996
0.10247775454458112       0.014410000844775225     -0.011477886630248381    0.003111192810804153     0.006831113042021926     -0.05080889033707897     0.07569843282351216      -0.01805842944441132     0.01805842944441132      -0.07569843282351216     0.05080889033707897      -0.006831113042021926
0.10547998523498447       0.01437252949319075      -0.011701690975168799    0.003189710404006391     0.006398827676900668     -0.051091290295862325    0.07660897352791342      -0.019118855555150478    0.019118855555150478     -0.07660897352791342     0.051091290295862325     -0.006398827676900668
0.10637419133878831       0.014359631593787192     -0.011767827784195292    0.003214266171507563     0.006272844521018758     -0.05116568185413001     0.07687981122619048      -0.019441284851041764    0.019441284851041764     -0.07687981122619048     0.05116568185413001      -0.006272844521018758
0.10746782422610632       0.01434486493768938      -0.011849320889970172    0.0032450797889658073    0.006122086361331467     -0.05125737338942604     0.07721801170115247      -0.019838551950395012    0.019838551950395012     -0.07721801170115247     0.05125737338942604      -0.006122086361331467
0.1097949049051605        0.014313443790339164     -0.012022725543509733    0.0033106463741246536    0.005801296446647728     -0.0514524787147089      0.07793764970770611      -0.02068387454634952     0.02068387454634952      -0.07793764970770611     0.0514524787147089       -0.005801296446647728
0.11289497105370723       0.014273172815580593     -0.01225811148244223     0.003396629720398743     0.005358530065429459     -0.05173416119689289     0.0789071989600828       -0.021814507697760502    0.021814507697760502     -0.0789071989600828      0.05173416119689289      -0.005358530065429459
0.11429379031717063       0.014255001650014611     -0.012364322888892873    0.0034354273315921743    0.005158743959719284     -0.051861262640339134    0.07934468129307651      -0.02232467469301813     0.02232467469301813      -0.07934468129307651     0.051861262640339134     -0.005158743959719284
0.11504724578566769       0.01424459873995984      -0.01242100091104427     0.0034562760253877053    0.005051298848337677     -0.05192709611150165     0.07957730431460326      -0.022598909354763986    0.022598909354763986     -0.07957730431460326     0.05192709611150165      -0.005051298848337677
0.11777448461823391       0.014209844915116829     -0.012629318319920582    0.0035304678961221424    0.004653606454960471     -0.052185773205506825    0.08042951637448394      -0.023590136714016687    0.023590136714016687     -0.08042951637448394     0.052185773205506825     -0.004653606454960471
0.12005051193366803       0.014182111361255953     -0.012801711584052054    0.003593016736852438     0.004331154917765497     -0.05239729052725832     0.08114142442207778      -0.02441297897705403     0.02441297897705403      -0.08114142442207778     0.05239729052725832      -0.004331154917765497
0.12072465662392601       0.014173858515564564     -0.012854056758629974    0.0036116084729253574    0.0042319806469406345    -0.052463453415317635    0.08135632119872044      -0.024660887136462244    0.024660887136462244     -0.08135632119872044     0.052463453415317635     -0.0042319806469406345
0.12113758337690379       0.014169242719788575     -0.012886598144068468    0.0036228035410294968    0.004169905171489727     -0.05250706570766458     0.0814894940359005       -0.02481252315674627     0.02481252315674627      -0.0814894940359005      0.05250706570766458      -0.004169905171489727
0.12153970193794571       0.01416480475522396      -0.012917973069606736    0.003633681737098118     0.004110417250020176     -0.05254880177087566     0.08161825566766057      -0.024959036646764785    0.024959036646764785     -0.08161825566766057     0.05254880177087566      -0.004110417250020176
0.12306598744058216       0.01414619629264953      -0.013037247947617325    0.0036753054380853703    0.003881870494788562     -0.05270291467580955     0.08210535818049247      -0.025520573009894423    0.025520573009894423     -0.08210535818049247     0.05270291467580955      -0.003881870494788562
0.12558042307874068       0.01411512671307674      -0.013232355030751793    0.0037441920388214945    0.003509956489184075     -0.05295055036312288     0.08290408667369478      -0.0264435798213879      0.0264435798213879       -0.08290408667369478     0.05295055036312288      -0.003509956489184075
0.13140851118642397       0.014052007731870701     -0.01369497895381917     0.003899047702675331     0.0026152694129852145    -0.053592761514497565    0.08478514313590016      -0.02857711220841745     0.02857711220841745      -0.08478514313590016     0.053592761514497565     -0.0026152694129852145
0.13161726395519574       0.01405020596083556      -0.013711947985930182    0.0039047428309609018    0.002583539287724186     -0.05361728455561804     0.08485522720330521      -0.028654403359963054    0.028654403359963054     -0.08485522720330521     0.05361728455561804      -0.002583539287724186
0.1319504932874835        0.01404732981714411      -0.013739035431395888    0.003913833890241503     0.0025328889010665695    -0.053656430367509854    0.08496710148944182      -0.02877778222086548     0.02877778222086548      -0.08496710148944182     0.053656430367509854     -0.0025328889010665695
0.1325195317175517        0.014037219759422535     -0.013783865674343868    0.003928995044796124     0.0024388226749979657    -0.05371005636269217     0.0851420167210611       -0.028993137683371042    0.028993137683371042     -0.0851420167210611      0.05371005636269217      -0.0024388226749979657
0.13298890935377314       0.014028880366607106     -0.013820844395558935    0.003941500890642741     0.0023612311091083774    -0.05375429035732003     0.08528629748246191      -0.02917077601603357     0.02917077601603357      -0.08528629748246191     0.05375429035732003      -0.0023612311091083774
0.13413866152131165       0.0140101961610228       -0.013911621763587286    0.003973098438950744     0.0021779207870867203    -0.053862863857004464    0.08564765136861037      -0.029606866724519256    0.029606866724519256     -0.08564765136861037     0.053862863857004464     -0.0021779207870867203
0.1388174631745976        0.013975875774547022     -0.014299593327837744    0.004099366555814159     0.0014504377888374417    -0.05445306530935064     0.08724799775586387      -0.031344494657675845    0.031344494657675845     -0.08724799775586387     0.05445306530935064      -0.0014504377888374417
0.1394366497131671        0.013965677100013996     -0.014349385766437123    0.004115681533289778     0.0013459230338757344    -0.05451678536618024     0.08744223763249842      -0.03157952923244251     0.03157952923244251      -0.08744223763249842     0.05451678536618024      -0.0013459230338757344
0.1418595692710842        0.013925768984362792     -0.014544227007006628    0.00417952316347764      9.369496016162712E-4     -0.05476612633583488     0.08820231164365597      -0.032499235706204874    0.032499235706204874     -0.08820231164365597     0.05476612633583488      -9.369496016162712E-4
0.14274412920897409       0.01391627917190102      -0.014615598678251062    0.0042038138853861895    8.010178505936138E-4     -0.05486409883701043     0.08849460992009993      -0.03282949323249593     0.03282949323249593      -0.08849460992009993     0.05486409883701043      -8.010178505936138E-4
0.14555593944432277       0.013884001185982462     -0.014853666206463422    0.004276289143647255     3.1216032716368104E-4    -0.05522384441676615     0.08943415756594414      -0.03389815282201438     0.03389815282201438      -0.08943415756594414     0.05522384441676615      -3.1216032716368104E-4
0.14730994722645868       0.013858661742183354     -0.015005960814256458    0.00432093200106768      -1.6830954131943023E-5   -0.05545147792286534     0.09001893393140674      -0.034584286962673405    0.034584286962673405     -0.09001893393140674     0.05545147792286534      1.6830954131943023E-5
0.14812490419443555       0.013846888387185128     -0.015076720792102791    0.004341674216749795     -1.6968873493893662E-4   -0.05555724228367942     0.09029063601767774      -0.03490308246893732     0.03490308246893732      -0.09029063601767774     0.05555724228367942      1.6968873493893662E-4
0.14949342954013461       0.013825510307151477     -0.015193393654153023    0.004377640977951531     -4.1859643634999273E-4   -0.05572063766495588     0.09074176548856808      -0.035439724259962266    0.035439724259962266     -0.09074176548856808     0.05572063766495588      4.1859643634999273E-4
0.15150194995650249       0.013800449924955365     -0.015367176720888283    0.004429804336264243     -7.814129676971549E-4    -0.055983212667518586    0.09142164735763247      -0.03621984765781112     0.03621984765781112      -0.09142164735763247     0.055983212667518586     7.814129676971549E-4
0.15285748604847732       0.013786041880089146     -0.015485166305633697    0.004465228727791077     -0.0010225002455584878   -0.05616666776591506     0.0918884975882436       -0.036744330067887125    0.036744330067887125     -0.0918884975882436      0.05616666776591506      0.0010225002455584878
0.1535529270032646        0.013779103523726929     -0.015546027682838727    0.004483884920494194     -0.001144336319085544    -0.056260750413993234    0.09213182977794673      -0.03701541568303913     0.03701541568303913      -0.09213182977794673     0.056260750413993234     0.001144336319085544
0.15399704336183945       0.013774672611884777     -0.015584894437860961    0.004495798973457488     -0.001222142195983376    -0.05632083264352247     0.09228722443118231      -0.0371885339836433      0.0371885339836433       -0.09228722443118231     0.05632083264352247      0.001222142195983376
0.15499874309212447       0.013763109933575234     -0.01567384847810998     0.0045215634592724995    -0.0014090717300894763   -0.05646151146439039     0.09263401913857033      -0.0375815794042695      0.0375815794042695       -0.09263401913857033     0.05646151146439039      0.0014090717300894763
0.15614364570118217       0.013749607164199547     -0.015773098906038643    0.004551445225971808     -0.001614301485829598    -0.056612730142627785    0.0930242919504022       -0.03802586329360408     0.03802586329360408      -0.0930242919504022      0.056612730142627785     0.001614301485829598
0.15670853956252678       0.0137448388805844       -0.015822287530666966    0.004565294269198734     -0.0017160077540371629   -0.05669536327637475     0.09321771742996456      -0.03823836190762704     0.03823836190762704      -0.09321771742996456     0.05669536327637475      0.0017160077540371629
0.15837377915432124       0.01372790171926593      -0.015973104537255166    0.004607793470228482     -0.002032336292319712    -0.056943943169383435    0.09380629093121123      -0.038894684054147574    0.038894684054147574     -0.09380629093121123     0.056943943169383435     0.002032336292319712
0.15965798627097116       0.013713421398082425     -0.01608713108121148     0.004640269329117757     -0.0022734731309985647   -0.05712715872332825     0.09424931335627025      -0.039395627763940635    0.039395627763940635     -0.09424931335627025     0.05712715872332825      0.0022734731309985647
0.16069728795187296       0.013701571363556011     -0.01618079923154727     0.004666187177837534     -0.00247450625617965     -0.05728079171040368     0.0946102891331039       -0.039804003678879936    0.039804003678879936     -0.0946102891331039      0.05728079171040368      0.00247450625617965
0.16241558835635794       0.013683289226564001     -0.016334535699859175    0.004710255532894296     -0.0027960065148723307   -0.057529163421128335    0.09521120768428266      -0.040478050778026714    0.040478050778026714     -0.09521120768428266     0.057529163421128335     0.0027960065148723307