% Model:              Cylinder_slice_potential_1.mph
% Version:            COMSOL 6.2.0.415
% Date:               May 17 2024, 18:29
% Dimension:          1
% Nodes:              802
% Expressions:        11
% Description:        Line graph
% Arc length (m)          Magnetic scalar potential Magnetic scalar potential Magnetic scalar potential Magnetic scalar potential Magnetic scalar potential Magnetic scalar potential Magnetic scalar potential Magnetic scalar potential Magnetic scalar potential Magnetic scalar potential Magnetic scalar potential
0                         -0.0023695396642012365   1.355128015209639E-6     2.7067317941630713E-7    -0.004733931251639174    0.004744227405165761     -0.004742062019730442    -0.004736096637074503    0.004736096637074503     0.004742062019730442     -0.004744227405165761    0.004733931251639174
0.0015445678302189304     -0.0023838396088178386   -4.408278128581398E-6    -1.9382828587497038E-6   -0.004788657183456417    0.004746701251814929     -0.004762207514684937    -0.004773150920586415    0.004773150920586415     0.004762207514684937     -0.004746701251814929    0.004788657183456417
0.001551374559414839      -0.0023839015020788194   -4.4349649825521885E-6   -1.948214683439526E-6    -0.00478890075783905     0.004746705250476219     -0.004762290967943746    -0.004773315040371529    0.004773315040371529     0.004762290967943746     -0.004746705250476219    0.00478890075783905
0.0043013989837839064     -0.0024089073418150876   -1.5216868906885612E-5   -5.960826275506208E-6    -0.004887308595452854    0.00474832077180749      -0.004796007382011547    -0.0048396219852488015   0.0048396219852488015    0.004796007382011547     -0.00474832077180749     0.004887308595452854
0.006650282510342439      -0.0024304153896069955   -2.2059859473093793E-5   -9.091388001636106E-6    -0.004963375909639814    0.004758285648788161     -0.004831016752801258    -0.004890644805626723    0.004890644805626723     0.004831016752801258     -0.004758285648788161    0.004963375909639814
0.009048080959836322      -0.002454278529709397    -3.367822630670064E-5    -1.237334439324446E-5    -0.005059085115911872    0.004758029002925711     -0.004857015758071674    -0.004960098360765913    0.004960098360765913     0.004857015758071674     -0.004758029002925711    0.005059085115911872
0.009273721585807004      -0.00245627537293497     -3.480767943913013E-5    -1.26608839404904E-5     -0.005067617319949289    0.004757484171790585     -0.004858771243314516    -0.004966330248425364    0.004966330248425364     0.004858771243314516     -0.004757484171790585    0.005067617319949289
0.009288479662456293      -0.0024564059769219644   -3.488155157908042E-5    -1.2679690530215553E-5   -0.005068175370702029    0.004757448536985822     -0.004858886061227554    -0.004966737846460303    0.004966737846460303     0.004858886061227554     -0.004757448536985822    0.005068175370702029
0.012609978294582016      -0.0024899675654190016   -4.980146082784692E-5    -1.7347063560029125E-5   -0.005198727767561658    0.004761142494114343     -0.004899919002594583    -0.005059951259081423    0.005059951259081423     0.004899919002594583     -0.004761142494114343    0.005198727767561658
0.012884010326319565      -0.002492785266914092    -5.0814439621974775E-5   -1.776771038396138E-5    -0.0052090846942299505   0.004762056373426412     -0.0049041980564981085   -0.0050669430111582574   0.0050669430111582574    0.0049041980564981085    -0.004762056373426412    0.0052090846942299505
0.012897562874037172      -0.002492924619360315    -5.086453757350728E-5    -1.7788513923304778E-5   -0.005209596907134368    0.004762101570306886     -0.004904409681693331    -0.005067288795747928    0.005067288795747928     0.004904409681693331     -0.004762101570306886    0.005209596907134368
0.013190072569057855      -0.0024959337798859125   -5.2021518103551607E-5   -1.819655329082918E-5    -0.005220718327245794    0.004763016792297852     -0.004908589218624491    -0.005075145900919158    0.005075145900919158     0.004908589218624491     -0.004763016792297852    0.005220718327245794
0.013202912340043962      -0.002496065867583062    -5.207230399302478E-5    -1.821446425966718E-5    -0.005221206504183864    0.004763056966148377     -0.004908772680225722    -0.005075490790106524    0.005075490790106524     0.004908772680225722     -0.004763056966148377    0.005221206504183864
0.021476407859170273      -0.0025759682973375466   -8.481778635373656E-5    -3.094370925711705E-5    -0.005530164790764769    0.004773708398585412     -0.005021258072642356    -0.005282615116707831    0.005282615116707831     0.005021258072642356     -0.004773708398585412    0.005530164790764769
0.021617955169264323      -0.0025772327834092793   -8.557546648525356E-5    -3.1167408545184596E-5   -0.005535861600455057    0.004773069533182057     -0.005022408801543541    -0.005286522332093577    0.005286522332093577     0.005022408801543541     -0.004773069533182057    0.005535861600455057
0.02221173496447417       -0.002582537202689449    -8.875387484234499E-5    -3.210580940472109E-5    -0.0055597592675248175   0.004770389543232977     -0.005027236018470754    -0.005302912792287045    0.005302912792287045     0.005027236018470754     -0.004770389543232977    0.0055597592675248175
0.022620517634054656      -0.002586833978004143    -9.095708994316582E-5    -3.272353166011412E-5    -0.00557743335247824     0.00476990255953833      -0.005031690812819252    -0.005315645099197324    0.005315645099197324     0.005031690812819252     -0.00476990255953833     0.00557743335247824
0.022676882045423345      -0.0025874408823238957   -9.122830515182587E-5    -3.2807997364269324E-5   -0.005579798669560346    0.004769964859735234     -0.005032428838649398    -0.005317334690646189    0.005317334690646189     0.005032428838649398     -0.004769964859735234    0.005579798669560346
0.023226173863006808      -0.0025933553870406325   -9.38713966221988E-5     -3.3631146564842E-5      -0.005602849550207228    0.004770571997955298     -0.005039621170474042    -0.0053338003776884895   0.0053338003776884895    0.005039621170474042     -0.004770571997955298    0.005602849550207228
0.026732383584040134      -0.0026289005015500515   -1.1075146919630886E-4   -3.9388908782814873E-5   -0.005747611045820288    0.004767990960379914     -0.005083102230642442    -0.005432499775557767    0.005432499775557767     0.005083102230642442     -0.004767990960379914    0.005747611045820288
0.03627822084815801       -0.002726427092041609    -1.5863438378856625E-4   -5.5237883608449775E-5   -0.006149708869882716    0.004755999498283719     -0.005197902567151325    -0.005707805801015115    0.005707805801015115     0.005197902567151325     -0.004755999498283719    0.006149708869882716
0.037676037438224244      -0.002740158014081651    -1.6663624159797978E-4   -5.759229083944527E-5    -0.0062105939163150225   0.004750038140011579     -0.005210776466727149    -0.005749855589599458    0.005749855589599458     0.005210776466727149     -0.004750038140011579    0.0062105939163150225
0.03789500879306076       -0.0027423089962803388   -1.678897520071339E-4    -5.796111443538178E-5    -0.006220131706323606    0.004749104278797747     -0.005212793194280809    -0.005756442790840549    0.005756442790840549     0.005212793194280809     -0.004749104278797747    0.006220131706323606
0.04675031923533231       -0.002837504887176009    -2.1997408228114704E-4   -7.318663850459939E-5    -0.006627678575213856    0.004722340973490178     -0.0053078340815269805   -0.006042185467177058    0.006042185467177058     0.0053078340815269805    -0.004722340973490178    0.006627678575213856
0.04708932807930796       -0.0028409291495138673   -2.2227748533389086E-4   -7.377791797242908E-5    -0.006643802426919123    0.004719914171136343     -0.005310137514915785    -0.006053579083139687    0.006053579083139687     0.005310137514915785     -0.004719914171136343    0.006643802426919123
0.04828208436170401       -0.0028529769485274702   -2.3038169414989361E-4   -7.585825396495061E-5    -0.006700531995364424    0.0047113757987454555    -0.005318241830465068    -0.006093665963644815    0.006093665963644815     0.005318241830465068     -0.0047113757987454555   0.006700531995364424
0.05326946999855988       -0.0029046988356357995   -2.5979651111245343E-4   -8.53296098858071E-5     -0.006930105644152189    0.004688689698391008     -0.005371326577477474    -0.006247468765065728    0.006247468765065728     0.005371326577477474     -0.004688689698391008    0.006930105644152189
0.055063187772350905      -0.002925027207039887    -2.7175313454747707E-4   -8.881539754954265E-5    -0.007020575407920377    0.00467953342023917      -0.00539005660063552     -0.006310052227524032    0.006310052227524032     0.00539005660063552      -0.00467953342023917     0.007020575407920377
0.059443219306818576      -0.002978817768005636    -3.0501642582646087E-4   -9.698132083489459E-5    -0.007260610096830233    0.004654660975192308     -0.005430511541871475    -0.006484759530151073    0.006484759530151073     0.005430511541871475     -0.004654660975192308    0.007260610096830233
0.06057273281177019       -0.0029906020937749897   -3.1419027791401515E-4   -9.907346832823075E-5    -0.007320068894604948    0.004642339480495009     -0.005434927227120865    -0.006527481147979098    0.006527481147979098     0.005434927227120865     -0.004642339480495009    0.007320068894604948
0.06134098369410386       -0.0029986173309813845   -3.2042997308345366E-4   -1.0049646517659205E-4   -0.007360510441919498    0.0046339588820060364    -0.005437930603418783    -0.006556538720506757    0.006556538720506757     0.005437930603418783     -0.0046339588820060364   0.007360510441919498
0.0635667485182077        -0.0030224393229696953   -3.365117266233008E-4    -1.04963966827465E-4     -0.007474269693119153    0.004615487598759626     -0.005455199333379356    -0.006634557958499429    0.006634557958499429     0.005455199333379356     -0.004615487598759626    0.007474269693119153
0.0718659763510804        -0.0031192530263008376   -4.0284962119203525E-4   -1.2198937508368885E-4   -0.007935012416512534    0.004541999688690812     -0.005517914689360333    -0.0069590974158430215   0.0069590974158430215    0.005517914689360333     -0.004541999688690812    0.007935012416512534
0.07196732552088261       -0.0031204003182022013   -4.036564038314226E-4    -1.2219633026358464E-4   -0.007940555168953006    0.004541046103855793     -0.005518616745964481    -0.006962984526844326    0.006962984526844326     0.005518616745964481     -0.004541046103855793    0.007940555168953006
0.07223136675164105       -0.0031233893152138844   -4.0575828470004787E-4   -1.2273550291313015E-4   -0.00795499549618043     0.004538561764675101     -0.005520445787980153    -0.006973111472875385    0.006973111472875385     0.005520445787980153     -0.004538561764675101    0.00795499549618043
0.07439988302650369       -0.003147030169885832    -4.258799482449025E-4    -1.2697295584567512E-4   -0.008079592007889068    0.004508528671654254     -0.005524312318419666    -0.007063808361123667    0.007063808361123667     0.005524312318419666     -0.004508528671654254    0.008079592007889068
0.07511510223705475       -0.003155981765639069    -4.3134145495310396E-4   -1.2844802222310555E-4   -0.008119779985029872    0.004504147077526404     -0.005531731255311259    -0.007092195807245024    0.007092195807245024     0.005531731255311259     -0.004504147077526404    0.008119779985029872
0.0769383126469852        -0.0031788008430939626   -4.452637262475589E-4    -1.322082069818419E-4    -0.008222225692857969    0.00449297767951788      -0.0055506433353726264   -0.007164560037003231    0.007164560037003231     0.0055506433353726264    -0.00449297767951788     0.008222225692857969
0.07885600527714358       -0.0031989629720890972   -4.5978338079873885E-4   -1.3613741761938554E-4   -0.008321825757051954    0.004474026131304435     -0.00556312547225953     -0.007232726416096865    0.007232726416096865     0.00556312547225953      -0.004474026131304435    0.008321825757051954
0.07944151784839718       -0.003208397673614939    -4.6559399819997286E-4   -1.3744612008276532E-4   -0.008363361822160858    0.004470228872298898     -0.00556979783296103     -0.0072637928614987315   0.0072637928614987315    0.00556979783296103      -0.004470228872298898    0.008363361822160858
0.08054171305403557       -0.003222757657471102    -4.7264941456367485E-4   -1.3995784753627823E-4   -0.008423294948778342    0.004467735681106065     -0.005587398461396301    -0.007303632168488112    0.007303632168488112     0.005587398461396301     -0.004467735681106065    0.008423294948778342
0.08210412582849136       -0.003241704126381554    -4.8814919670146827E-4   -1.434140861328679E-4    -0.008521512187398984    0.004445304318127231     -0.005592617007190184    -0.007374199498336037    0.007374199498336037     0.005592617007190184     -0.004445304318127231    0.008521512187398984
0.08418689141502525       -0.0032661729989149884   -5.142966049395062E-4    -1.478315992610305E-4    -0.008666562209692617    0.004398129785967336     -0.00558078258005559     -0.007483909415604371    0.007483909415604371     0.00558078258005559      -0.004398129785967336    0.008666562209692617
0.0855774973191737        -0.00328251019923789     -5.31754517874637E-4     -1.5078105256359793E-4   -0.00876340816235408     0.004366632634597476     -0.00557288105510627     -0.007557159741845297    0.007557159741845297     0.00557288105510627      -0.004366632634597476    0.00876340816235408
0.08561162561976986       -0.0032829762323177344   -5.321315178460462E-4    -1.508601718839595E-4    -0.008765787705709443    0.004366117223561491     -0.005572998598633177    -0.007558906330637766    0.007558906330637766     0.005572998598633177     -0.004366117223561491    0.008765787705709443
0.08569761281320769       -0.0032839955835195942   -5.330051885341924E-4    -1.5105851409113498E-4   -0.008771240789006304    0.00436474154507207      -0.005573209657801161    -0.007562772676277222    0.007562772676277222     0.005573209657801161     -0.00436474154507207     0.008771240789006304
0.08610162201161246       -0.0032890471750820867   -5.368934948064249E-4    -1.5198445595088054E-4   -0.008796712658386968    0.004359476041941375     -0.005575351689548431    -0.007580837010779924    0.007580837010779924     0.005575351689548431     -0.004359476041941375    0.008796712658386968
0.08755844666151498       -0.003307262807643268    -5.509144142461939E-4    -1.553233277661267E-4    -0.008888562169089622    0.004340489061483447     -0.00558307568361247     -0.007645975546960608    0.007645975546960608     0.00558307568361247      -0.004340489061483447    0.008888562169089622
0.08763461880918459       -0.003308105587447028    -5.516536940788524E-4    -1.5551396253169568E-4   -0.008893228107257393    0.004339194242530716     -0.005583305942784291    -0.007649116407003827    0.007649116407003827     0.005583305942784291     -0.004339194242530716    0.008893228107257393
0.08832511558769482       -0.0033157453449869307   -5.58355229462655E-4     -1.572420573212548E-4    -0.008935524607646845    0.004327456772300877     -0.005585393230870926    -0.007677588149076806    0.007677588149076806     0.005585393230870926     -0.004327456772300877    0.008935524607646845
0.08881709758312926       -0.003321901469835571    -5.637181483313474E-4    -1.5835970420338073E-4   -0.008968396201478707    0.004319209677863577     -0.005586087311490633    -0.00770151856785166     0.00770151856785166      0.005586087311490633     -0.004319209677863577    0.008968396201478707
0.08913631462266607       -0.0033256546781018042   -5.671766066091302E-4    -1.590650620951812E-4    -0.008989099424411723    0.004313519287995494     -0.005586039784756953    -0.0077165789276502725   0.0077165789276502725    0.005586039784756953     -0.004313519287995494    0.008989099424411723
0.0919367438129669        -0.0033585808464582628   -5.975169904702008E-4    -1.6525303010802138E-4   -0.009170724784759212    0.004263598601073838     -0.005585622841938018    -0.007848700543895042    0.007848700543895042     0.005585622841938018     -0.004263598601073838    0.009170724784759212
0.09766176029744916       -0.0034294171015157096   -6.599096181265863E-4    -1.7857040677504997E-4   -0.00955284468451138     0.004164823721551461     -0.005593386975751869    -0.008124281430310978    0.008124281430310978     0.005593386975751869     -0.004164823721551461    0.00955284468451138
0.102720727033906         -0.003493361964417127    -7.223341018339083E-4    -1.9081178422347938E-4   -0.009916973371229895    0.00405647448643861      -0.005582968760226455    -0.008390479097442059    0.008390479097442059     0.005582968760226455     -0.00405647448643861     0.009916973371229895
0.10413954016521301       -0.0035102239095399744   -7.397470881288956E-4    -1.9415687086622783E-4   -0.010016316566931546    0.004024579071228349     -0.005577834038158183    -0.008463061600001723    0.008463061600001723     0.005577834038158183     -0.004024579071228349    0.010016316566931546
0.10699840500720342       -0.0035425519999047134   -7.745073175634516E-4    -2.0074319307624734E-4   -0.010211598724804769    0.0039586092748140796    -0.00556455481942407     -0.00860565318019479     0.00860565318019479      0.00556455481942407      -0.0039586092748140796   0.010211598724804769
0.10952504973447358       -0.0035717974395505785   -8.088693884925717E-4    -2.068005466609074E-4    -0.010397405231222501    0.00388978452697981      -0.00554418890026708     -0.008743000857935241    0.008743000857935241     0.00554418890026708      -0.00388978452697981     0.010397405231222501
0.11099439852178783       -0.0035887085178562634   -8.287538661016523E-4    -2.1035333302933787E-4   -0.010505091966134833    0.0038497421052902164    -0.00553256876952493     -0.00882226530190013     0.00882226530190013      0.00553256876952493      -0.0038497421052902164   0.010505091966134833
0.1138034049172416        -0.00362268549707688     -8.650940931856871E-4    -2.1748830366954324E-4   -0.010710606488388993    0.003780135499918524     -0.005520041929274881    -0.008970700059032645    0.008970700059032645     0.005520041929274881     -0.003780135499918524    0.010710606488388993
0.11397357648045472       -0.0036247438461346083   -8.67295609444397E-4     -2.179205451586651E-4    -0.010723056701237067    0.0037759186833013626    -0.005519283044570693    -0.008979692339967742    0.008979692339967742     0.005519283044570693     -0.0037759186833013626   0.010723056701237067
0.11407520372852747       -0.0036260831254238926   -8.688273754518833E-4    -2.1818296712933309E-4   -0.010731380245720765    0.003772952255974801     -0.005518415993009476    -0.008985916508686098    0.008985916508686098     0.005518415993009476     -0.003772952255974801    0.010731380245720765
0.11574359722575231       -0.003648069796317625    -8.939740609582312E-4    -2.2249109430678223E-4   -0.010868026152737069    0.0037242530325334255    -0.005504181786987693    -0.00908809739828281     0.00908809739828281      0.005504181786987693     -0.0037242530325334255   0.010868026152737069
0.11630236441566394       -0.003655640130096111    -9.024940461726157E-4    -2.2392191185328654E-4   -0.01091445004612321     0.003708110474261226     -0.005499485769087528    -0.009123074751296919    0.009123074751296919     0.005499485769087528     -0.003708110474261226    0.01091445004612321
0.12282109898049892       -0.003729425583692076    -9.995063737250605E-4    -2.403434243928522E-4    -0.011418743986130736    0.003498958348637558     -0.005421705743780387    -0.00949599659098792     0.00949599659098792      0.005421705743780387     -0.003498958348637558    0.011418743986130736
0.12430305561029831       -0.0037470205644173278   -0.0010223387949436485   -2.440859180667422E-4    -0.011537401185932562    0.003450681071736737     -0.005403368416270686    -0.009584713841398626    0.009584713841398626     0.005403368416270686     -0.003450681071736737    0.011537401185932562
0.12512304030298596       -0.00375867247632224     -0.001035088576913172    -2.4627715333155247E-4   -0.0116077192967102      0.003426970608578751     -0.005397187835231181    -0.009637502070057782    0.009637502070057782     0.005397187835231181     -0.003426970608578751    0.0116077192967102
0.126759324248865         -0.003779414342971594    -0.0010635023960911506   -2.506272195081109E-4    -0.01175184475224908     0.0033658126196372895    -0.005370830375702187    -0.00974682699618419     0.00974682699618419      0.005370830375702187     -0.0033658126196372895   0.01175184475224908
0.12730295775084405       -0.0037861732998617243   -0.0010726691785542873   -2.520568213819892E-4    -0.011798581420914262    0.003346111778532626     -0.00536256634958855     -0.009782126849858347    0.009782126849858347     0.00536256634958855      -0.003346111778532626    0.011798581420914262
0.1345627604118268        -0.0038664700254848654   -0.0011951128799258144   -2.714161299239449E-4    -0.012403943210442948    0.003061936891496504     -0.005233265930888073    -0.010232614171051391    0.010232614171051391     0.005233265930888073     -0.003061936891496504    0.012403943210442948
0.1349640870830597        -0.003870983102979934    -0.0012017295530230066   -2.724831340886119E-4    -0.012437087401383329    0.003046845010536398     -0.005226710083245304    -0.010257222328674436    0.010257222328674436     0.005226710083245304     -0.003046845010536398    0.012437087401383329
0.135032981479733         -0.0038716155259060133   -0.0012029203377233867   -2.726642919695246E-4    -0.012442649232860278    0.003043812870763766     -0.005225127206519973    -0.010261334897104084    0.010261334897104084     0.005225127206519973     -0.003043812870763766    0.012442649232860278
0.13601093162161768       -0.00388277589040835     -0.0012208479356896629   -2.752979361104565E-4    -0.01252928733232751     0.0030018162293058825    -0.005204199718189544    -0.01032690384344386     0.01032690384344386      0.005204199718189544     -0.0030018162293058825   0.01252928733232751
0.14033313510849177       -0.003932100865476938    -0.0013000817566406855   -2.869377379792756E-4    -0.012912197952793029    0.0028162055091147144    -0.0051117074129489294   -0.010616696048958827    0.010616696048958827     0.0051117074129489294    -0.0028162055091147144   0.012912197952793029
0.14166157980916358       -0.003946927692376597    -0.0013243348709201061   -2.9067499625207356E-4   -0.013029559982521801    0.002758150786984579     -0.005083550757001178    -0.010704160012505216    0.010704160012505216     0.005083550757001178     -0.002758150786984579    0.013029559982521801
0.14439017582483124       -0.0039773816666993115   -0.0013741502309097954   -2.983512420359746E-4    -0.013270618994271899    0.002638907672525336     -0.005025717608813144    -0.010883809057984105    0.010883809057984105     0.005025717608813144     -0.002638907672525336    0.013270618994271899
0.14998775131527195       -0.004033032499698778    -0.0014897009159440615   -3.14005741516447E-4     -0.013791190713295518    0.0023409392854995773    -0.004852985217631164    -0.011279144781163944    0.011279144781163944     0.004852985217631164     -0.0023409392854995773   0.013791190713295518
0.15020104117609026       -0.004035153017491731    -0.0014941038560331258   -3.14602240129297E-4     -0.013811026563600018    0.0023295855063668923    -0.004846403427401278    -0.011294208642565643    0.011294208642565643     0.004846403427401278     -0.0023295855063668923   0.013811026563600018
0.15036707385409787       -0.004036324350770501    -0.0014970331213099279   -3.15069240095751E-4     -0.013824025025853781    0.002321272377228211     -0.004841826297994228    -0.011303471105087774    0.011303471105087774     0.004841826297994228     -0.002321272377228211    0.013824025025853781
0.15071373524160334       -0.004039265711997049    -0.001504363183191707    -3.160527890431818E-4    -0.013855832129741938    0.002301230718246245     -0.0048296530305917094   -0.011327409817396486    0.011327409817396486     0.0048296530305917094    -0.002301230718246245    0.013855832129741938
0.15985826408098677       -0.004130356243947102    -0.0017027840600281198   -3.426643540723013E-4    -0.014739722084267763    0.0017817028915206332    -0.004523017724099054    -0.011998407251689353    0.011998407251689353     0.004523017724099054     -0.0017817028915206332   0.014739722084267763
0.16085895065108285       -0.004140962853992027    -0.001724355545302381    -3.455482637807969E-4    -0.014837185399014382    0.0017266660169537166    -0.0044910521272001035   -0.012072799288768005    0.012072799288768005     0.0044910521272001035    -0.0017266660169537166   0.014837185399014382
0.16106158178107977       -0.004142488390113796    -0.0017286412850926812   -3.461300078139831E-4    -0.014855420666761564    0.0017145328936936104    -0.004483572956205486    -0.012086380604249698    0.012086380604249698     0.004483572956205486     -0.0017145328936936104   0.014855420666761564
0.1625803716738451        -0.004153809568410469    -0.0017625394777175674   -3.5067380292959355E-4   -0.014997932781692012    0.001617305491949858     -0.004422695915386616    -0.012192542358255263    0.012192542358255263     0.004422695915386616     -0.001617305491949858    0.014997932781692012
0.1628771026427917        -0.0041560214241922275   -0.0017691622789299225   -3.5156153910282734E-4   -0.015025775841585529    0.001598309855183374     -0.004410802168006002    -0.012213283528762909    0.012213283528762909     0.004410802168006002     -0.001598309855183374    0.015025775841585529
0.17138927214761915       -0.004217965020527432    -0.001975147438439347    -3.767139021804179E-4    -0.01586822796509458     0.0010036321170151475    -0.004017343334458501    -0.01285451674765123     0.01285451674765123      0.004017343334458501     -0.0010036321170151475   0.01586822796509458
0.1753217628517098        -0.004238998851684432    -0.0020803736091777832   -3.886255145070927E-4    -0.016273620588930587    6.823748178071389E-4     -0.0037913789338638914   -0.01316461647287384     0.01316461647287384      0.0037913789338638914    -6.823748178071389E-4    0.016273620588930587
0.17549950789184884       -0.004239930215961999    -0.002084811462152528    -3.8915044825302747E-4   -0.016290896611393695    6.688242524543008E-4     -0.003782027838478531    -0.013177693025369466    0.013177693025369466     0.003782027838478531     -6.688242524543008E-4    0.016290896611393695
0.1762169324852802        -0.004243689441185093    -0.0021027237755629263   -3.9126921555568287E-4   -0.0163606270712817      6.1413069345867E-4       -0.003744284417904143    -0.01323047334683623     0.01323047334683623      0.003744284417904143     -6.1413069345867E-4      0.0163606270712817
0.1818458927253367        -0.00427846087973727     -0.0022479378776642917   -4.085834438882314E-4    -0.016935069168020345    1.7877435092873584E-4    -0.003447441902034599    -0.013666401616914483    0.013666401616914483     0.003447441902034599     -1.7877435092873584E-4   0.016935069168020345
0.1848105175790022        -0.004293102401268682    -0.002327463138137773    -4.1808651664958685E-4   -0.01724094028354903     -6.85306784743075E-5     -0.0032761614547223983   -0.013896248150352328    0.013896248150352328     0.0032761614547223983    6.85306784743075E-5      0.01724094028354903
0.1849578408586731        -0.004293532943649652    -0.0023310301075819234   -4.185754183432858E-4    -0.01725445788341822     -8.032610881961437E-5    -0.0032682772379266827   -0.013905854536671928    0.013905854536671928     0.0032682772379266827    8.032610881961437E-5     0.01725445788341822
0.18523686711708556       -0.004294348379132209    -0.002337785850055869    -4.1950138476644144E-4   -0.017280059847497795    -1.0266633096895982E-4   -0.0032533447471625827   -0.013924048769366254    0.013924048769366254     0.0032533447471625827    1.0266633096895982E-4    0.017280059847497795
0.19178299777457633       -0.004314037031993321    -0.0025245423676906564   -4.3976978340052794E-4   -0.017960780300660718    -7.046321726874449E-4    -0.0028135260945167896   -0.014442622033456497    0.014442622033456497     0.0028135260945167896    7.046321726874449E-4     0.017960780300660718
0.19221991791934798       -0.0043154698227450775   -0.0025372148258364785   -4.4100103565015785E-4   -0.01800658826560022     -7.447089746199205E-4    -0.0027832993105813527   -0.014478579980398955    0.014478579980398955     0.0027832993105813527    7.447089746199205E-4     0.01800658826560022
0.19230251330305423       -0.004315740677507276    -0.0025396104273109833   -4.412337915741277E-4    -0.018015247803244015    -7.522850932149165E-4    -0.002777585239378116    -0.014485377470650988    0.014485377470650988     0.002777585239378116     7.522850932149165E-4     0.018015247803244015
0.1927924409622876        -0.004317348047889954    -0.002553454611855966    -4.4286415717466636E-4   -0.01806651656004647     -7.971243684866653E-4    -0.0027457888889106767   -0.014523603302649136    0.014523603302649136     0.0027457888889106767    7.971243684866653E-4     0.01806651656004647
0.19312022863364722       -0.0043178909091960435   -0.0025616900743149025   -4.4392269567302767E-4   -0.018096542824028908    -8.24979187244737E-4     -0.0027264023781394947   -0.014545161258644683    0.014545161258644683     0.0027264023781394947    8.24979187244737E-4      0.018096542824028908
0.19318263807043928       -0.004317994267776399    -0.0025632580728050616   -4.441242370892481E-4    -0.01810225970232497     -8.302826312193881E-4    -0.0027227112654946073   -0.014549265805610986    0.014549265805610986     0.0027227112654946073    8.302826312193881E-4     0.01810225970232497