% Model:              Cylinder_slice_potential_4.mph
% Version:            COMSOL 6.2.0.415
% Date:               May 17 2024, 21:56
% Dimension:          1
% Nodes:              838
% Expressions:        11
% Description:        Line graph
% Arc length (m)          Magnetic scalar potential Magnetic scalar potential Magnetic scalar potential Magnetic scalar potential Magnetic scalar potential Magnetic scalar potential Magnetic scalar potential Magnetic scalar potential Magnetic scalar potential Magnetic scalar potential Magnetic scalar potential
0                         -2.716330183859474E-7    -1.1237799156789099E-7   -1.2439317680973793E-7   -1.3779727187209569E-6   -2.9144064515520717E-7   -7.037047692713E-7       -3.8282730427094457E-7   3.8282730427094457E-7    7.037047692634124E-7     2.9144064515520717E-7    1.3779727187209569E-6
0.0030840574140457992     -1.3304889335179836E-4   7.069580962099103E-5     -1.3282156150272798E-4   -5.852966038515416E-4    -5.3101030444327024E-5   -0.0010094714615774452   4.77275888170254E-4      -4.77275888170254E-4     0.0010094714615774376    5.3101030444327024E-5    5.852966038515416E-4
0.004282808743305728      -1.8465822184259026E-4   9.821917518808278E-5     -1.8439763722781862E-4   -8.122494670322125E-4    -7.361657966183067E-5    -0.0014015645181606664   6.629316307903082E-4     -6.629316307903082E-4    0.001401564518160659     7.361657966183067E-5     8.122494670322125E-4
0.005464469226791127      -2.355317454568965E-4    1.2535013443651496E-4    -2.352383821679857E-4    -0.0010359666162761962   -9.383963444858966E-5    -0.0017880674228952433   8.459404410676605E-4     -8.459404410676605E-4    0.0017880674228952361    9.383963444858966E-5     0.0010359666162761962
0.007248283464776167      -3.123248832305625E-4    1.6631364768235126E-4    -3.1200965562344315E-4   -0.001373747445907849    -1.2444791298557795E-4   -0.002371629332001913    0.0011223297990796666    -0.0011223297990796666   0.0023716293320019057    1.2444791298557795E-4    0.001373747445907849
0.007847749334646653      -3.3813161393730565E-4   1.800696802172177E-4     -3.377818284830284E-4    -0.0014871815011550768   -1.3465504540583352E-4   -0.0025675995824583405   0.0012150731267091205    -0.0012150731267091205   0.0025675995824583327    1.3465504540583352E-4    0.0014871815011550768
0.008335368659952368      -3.591241837867213E-4    1.9126668938317305E-4    -3.5876840932748296E-4   -0.0015795219367338601   -1.430252015869539E-4    -0.0027271220730328556   0.001290625337885973     -0.001290625337885973    0.0027271220730328482    1.430252015869539E-4     0.0015795219367338601
0.009069443015152766      -3.9072692464722303E-4   2.0812294765086667E-4    -3.9036213418979296E-4   -0.001718533543101022    -1.556258445121096E-4    -0.0029672712290061795   0.0014043635304172904    -0.0014043635304172904   0.0029672712290061726    1.556258445121096E-4     0.001718533543101022
0.011019869632425676      -4.747083521143804E-4    2.529094614424936E-4     -4.7428386571088605E-4   -0.0020878237827448294   -1.8899037428728638E-4   -0.0036052805513997485   0.0017064471429422293    -0.0017064471429422293   0.0036052805513997407    1.8899037428728638E-4    0.0020878237827448294
0.014164430648757838      -6.100721621963945E-4    3.250921636773773E-4     -6.095919936898518E-4    -0.0026832358081200682   -2.4294715933446856E-4   -0.004633788790184291    0.002193500141398713     -0.002193500141398713    0.004633788790184284     2.4294715933446856E-4    0.0026832358081200682
0.015684198680249527      -6.75493564457341E-4     3.5997810251383087E-4    -6.749864847604289E-4    -0.002970998760414909    -2.690245025855232E-4    -0.005130867375497853    0.002428893117668489     -0.002428893117668489    0.005130867375497846     2.690245025855232E-4     0.002970998760414909
0.016705533463089887      -7.194543856045839E-4    3.834120024216298E-4     -7.189351901018507E-4    -0.003164413524351685    -2.8659598193332735E-4   -0.005464885538881424    0.002587067996463087     -0.002587067996463087    0.005464885538881417     2.8659598193332735E-4    0.003164413524351685
0.017893736250142588      -7.706173648397796E-4    4.1068953585142703E-4    -7.700759349445129E-4    -0.0033894698619033334   -3.070004025441921E-4    -0.0058536070770118555   0.0027711376176527353    -0.0027711376176527353   0.0058536070770118485    3.070004025441921E-4     0.0033894698619033334
0.02206167557633671       -9.500852094899097E-4    5.063727858340617E-4     -9.4946578651127E-4      -0.0041789152075227196   -3.78574369563056E-4     -0.007217151922527051    0.0034168110845674065    -0.0034168110845674065   0.007217151922527042     3.78574369563056E-4      0.0041789152075227196
0.023434968594827753      -0.0010092234717350337   5.37906114034696E-4      -0.001008572817449387    -0.004439019871163532    -4.0212598422337275E-4   -0.00766645655537167     0.003629562668431529     -0.003629562668431529    0.00766645655537166      4.0212598422337275E-4    0.004439019871163532
0.02421257689771279       -0.0010427048490328958   5.557702921348078E-4     -0.0010420535637720774   -0.004586313076749681    -4.1549368061807466E-4   -0.00792093482955849     0.003750115433426903     -0.003750115433426903    0.007920934829558482     4.1549368061807466E-4    0.004586313076749681
0.02443936118169098       -0.0010524691632049295   5.609791058988887E-4     -0.00105181522732122     -0.004629261917998077    -4.19385265178335E-4     -0.007995136553391373    0.0037852599005716494    -0.0037852599005716494   0.007995136553391364     4.19385265178335E-4      0.004629261917998077
0.031185738509405987      -0.0013428763381621816   7.159081879706509E-4     -0.0013421963087616358   -0.005906813347458955    -5.35307994810204E-4     -0.010202262475282824    0.004830757122634092     -0.004830757122634092    0.010202262475282817     5.35307994810204E-4      0.005906813347458955
0.03259337846537278       -0.0014035037233117139   7.482427792451E-4        -0.0014028148110028806   -0.006173538352899653    -5.59523459652771E-4     -0.010662995028370214    0.005048980135123354     -0.005048980135123354    0.010662995028370207     5.59523459652771E-4      0.006173538352899653
0.03660804285230243       -0.0015764162660402434   8.404627617095064E-4     -0.0015757020192022192   -0.006934252323760848    -6.285872595998449E-4    -0.01197702889401785     0.005671363829856871     -0.005671363829856871    0.01197702889401784      6.285872595998449E-4     0.006934252323760848
0.03791815360715521       -0.0016328257846009958   8.705384554111323E-4     -0.0016321222528486341   -0.007182525214363137    -6.512220759591219E-4    -0.012405755946829893    0.005874452808425902     -0.005874452808425902    0.012405755946829881     6.512220759591219E-4     0.007182525214363137
0.03869544249038382       -0.0016662816261795636   8.883799659776617E-4     -0.001665581920726015    -0.007329751037330208    -6.64624532611923E-4     -0.01266003083319614     0.005994904328477879     -0.005994904328477879    0.012660030833196128     6.64624532611923E-4      0.007329751037330208
0.03945533781149233       -0.0016990026021061755   9.058413334291636E-4     -0.0016983283756949981   -0.00747379470670486     -6.77784298280125E-4     -0.012908842707279803    0.006112832298855092     -0.006112832298855092    0.01290884270727979      6.77784298280125E-4      0.00747379470670486
0.03952803022212826       -0.0017021323333087609   9.075112393550273E-4     -0.0017014587110252908   -0.007487565792653611    -6.790364594185354E-4    -0.012932633228783736    0.006124103895548684     -0.006124103895548684    0.012932633228783725     6.790364594185354E-4     0.007487565792653611
0.04279097919004052       -0.0018426167815198424   9.824684153468793E-4     -0.0018419702767561328   -0.008105709424023586    -7.352422979441845E-4    -0.014000519916104823    0.006630052790025444     -0.006630052790025444    0.014000519916104813     7.352422979441845E-4     0.008105709424023586
0.045643775551996175      -0.0019654622661150743   0.0010479965530189735    -0.001964820316542751    -0.008646216139344243    -7.843670748839137E-4    -0.014934195457458044    0.007072346392997735     -0.007072346392997735    0.014934195457458034     7.843670748839137E-4     0.008646216139344243
0.0479067574888014        -0.0020629288123236982   0.0010999814529480214    -0.0020623015808921823   -0.009075119589372072    -8.234043400772473E-4    -0.015675008307060156    0.007423293057765354     -0.007423293057765354    0.015675008307060152     8.234043400772473E-4     0.009075119589372072
0.05042339274671427       -0.002171340036504906    0.00115778992018264      -0.0021707330054967977   -0.009552242334449094    -8.668821884294366E-4    -0.016498981855544888    0.007813621709525254     -0.007813621709525254    0.016498981855544884     8.668821884294366E-4     0.009552242334449094
0.05050716088543991       -0.0021749485874214816   0.0011597141194433789    -0.0021743422287999912   -0.009568123731712801    -8.68329382026843E-4     -0.01652640844837303     0.007826614098687096     -0.007826614098687096    0.016526408448373026     8.68329382026843E-4      0.009568123731712801
0.05196360766396077       -0.002237662240025578    0.001193145020891259     -0.0022371047365922878   -0.00984430836374654     -8.936594036441973E-4    -0.01700317848909405     0.008052529528991732     -0.008052529528991732    0.017003178489094047     8.936594036441973E-4     0.00984430836374654
0.051973863034610004      -0.0022381038296268646   0.0011933804200081662    -0.0022375466702006957   -0.009846253080032025    -8.938377615245348E-4    -0.017006535600080978    0.008054120281573512     -0.008054120281573512    0.017006535600080974     8.938377615245348E-4     0.009846253080032025
0.05262478975511465       -0.002266138935097096    0.0012083253842548795    -0.002265607615710347    -0.009969732180270951    -9.051764398825389E-4    -0.017219684485800184    0.008155128745411796     -0.008155128745411796    0.01721968448580018      9.051764398825389E-4     0.009969732180270951
0.053178217410239495      -0.002289970293521818    0.0012210373314281908    -0.002289463269835485    -0.010074681672101012    -9.148004980137119E-4    -0.017400905660670114    0.008241024486582836     -0.008241024486582836    0.01740090566067011      9.148004980137119E-4     0.010074681672101012
0.05356665350024898       -0.002306700329730976    0.001229964165066262     -0.002306206441543426    -0.01014833393043688     -9.215326115129467E-4    -0.017528118920834408    0.008301317601910496     -0.008301317601910496    0.017528118920834404     9.215326115129467E-4     0.01014833393043688
0.05611731880111504       -0.002416558100258658    0.0012885822116197522    -0.002416150466314257    -0.010631971430915092    -9.657390298804357E-4    -0.018363464700633565    0.008697232299598928     -0.008697232299598928    0.01836346470063356      9.657390298804357E-4     0.010631971430915092
0.06300889710146174       -0.0027134656984270974   0.0014469410016017762    -0.0027131891027456856   -0.011938864803031617    -0.0010850020093232011   -0.020620510812642233    0.009766648018933838     -0.009766648018933838    0.020620510812642233     0.0010850020093232011    0.011938864803031617
0.06444508352223952       -0.0027753517754582893   0.0014799550114884866    -0.0027751117076736578   -0.012211285347145762    -0.0011098782453125753   -0.021091015416076643    0.009989608314243474     -0.009989608314243474    0.021091015416076636     0.0011098782453125753    0.012211285347145762
0.06789393935872282       -0.0029239649045606337   0.0015592348034683021    -0.002923812554810501    -0.012865475617958377    -0.0011696159997158153   -0.02222088443876815     0.010525024820525603     -0.010525024820525603    0.022220884438768143     0.0011696159997158153    0.012865475617958377
0.07254769183390716       -0.003124521348201385    0.0016661909307954254    -0.0031245760229135352   -0.013748773995670647    -0.0012506886028650814   -0.023745919580443163    0.011247834187637612     -0.011247834187637612    0.023745919580443156     0.0012506886028650814    0.013748773995670647
0.0761961605657005        -0.003281812752731073    0.001750061645265594     -0.0032818782777810415   -0.014440953680789542    -0.0013137026698652264   -0.02494132355238307     0.011814072541458769     -0.011814072541458769    0.024941323552383064     0.0013137026698652264    0.014440953680789542
0.08024919247370535       -0.003456587912899581    0.0018432659701965812    -0.0034567301410472185   -0.015210298479398306    -0.0013839468277999534   -0.026269894300577752    0.012443542648979419     -0.012443542648979419    0.026269894300577752     0.0013839468277999534    0.015210298479398306
0.08140896143501508       -0.0035065779419163235   0.001869933660076347     -0.003506761899573255    -0.015430402501896642    -0.0014040907342313229   -0.026650004462354687    0.012623692694689383     -0.012623692694689383    0.026650004462354684     0.0014040907342313229    0.015430402501896642
0.08188730812262505       -0.0035271963285014247   0.0018809327482962892    -0.0035273974974937288   -0.015521184402088911    -0.001412399088083188    -0.02680678089186661     0.012697995577860902     -0.012697995577860902    0.026806780891866607     0.001412399088083188     0.015521184402088911
0.08195757607418305       -0.00353022797450778     0.001882549188999535     -0.0035304305514296972   -0.015534530587735759    -0.001413618689704613    -0.026829825721732932    0.0127089138237018       -0.0127089138237018      0.02682982572173293      0.001413618689704613     0.015534530587735759
0.08206568444025367       -0.0035348903542940452   0.0018850362516430687    -0.003535088590051414    -0.015555026313864554    -0.0014154648966883485   -0.02686524382372293     0.01272568240654674      -0.01272568240654674     0.026865243823722927     0.0014154648966883485    0.015555026313864554
0.08217694928430871       -0.003539691171476698    0.0018875963986738288    -0.003539884437460359    -0.015576130896773361    -0.0014173662108665425   -0.0269017092888163      0.012742944602909494     -0.012742944602909494    0.026901709288816293     0.0014173662108665425    0.015576130896773361
0.08278979229781992       -0.0035661339108210154   0.0019016976022901925    -0.0035662998034584835   -0.0156923742286054      -0.001427838585321314    -0.027102559842346517    0.012838024199062447     -0.012838024199062447    0.02710255984234651      0.001427838585321314     0.0156923742286054
0.08639135277991364       -0.003721511394723112    0.0019845791048474027    -0.0037218322677374897   -0.016376614545853985    -0.0014905689669615114   -0.02828408917493837     0.013398043596045909     -0.013398043596045909    0.028284089174938364     0.0014905689669615114    0.016376614545853985
0.0865905601921968        -0.0037301021234312664   0.001989163661292502     -0.0037304195778857198   -0.016414391574527915    -0.0014939830808028249   -0.028349373542282896    0.013428965048557819     -0.013428965048557819    0.02834937354228289      0.0014939830808028249    0.016414391574527915
0.0892029377145027        -0.0038427597114205833   0.002049284879020575     -0.0038430323353689684   -0.01690979412725533     -0.00153875528157297     -0.029205503401378743    0.013834464555696402     -0.013834464555696402    0.029205503401378737     0.00153875528157297      0.01690979412725533
0.08946091762271229       -0.003853907604980748    0.0020552247764482317    -0.0038541599242721486   -0.016958780577705404    -0.0015431501577823899   -0.02929012923639476     0.01387449881647176      -0.01387449881647176     0.02929012923639476      0.0015431501577823899    0.016958780577705404
0.09114560807328734       -0.0039266796076512485   0.0020940143803576997    -0.003926911700693911    -0.01727896287700505     -0.0015722444464000328   -0.029843049159151213    0.01413633072854621      -0.01413633072854621     0.029843049159151213     0.0015722444464000328    0.01727896287700505
0.09173554299033039       -0.003952122253972334    0.002107591009179503     -0.0039523847833099575   -0.017391010613645997    -0.001582521597756638    -0.030036556668722982    0.014228067652833633     -0.014228067652833633    0.030036556668722982     0.001582521597756638     0.017391010613645997
0.09415688704504815       -0.004056847059484125    0.0021634078696847582    -0.004056806988128224    -0.01785069846242688     -0.0016233102244903534   -0.030831145680535403    0.014603757442598883     -0.014603757442598883    0.030831145680535403     0.0016233102244903534    0.01785069846242688
0.09802721013660275       -0.004224100732151161    0.002252588867150767     -0.004223805516085502    -0.01858565692719204     -0.001689253998587369    -0.03210119013009661     0.015204787201491946     -0.015204787201491946    0.03210119013009661      0.001689253998587369     0.01858565692719204
0.10557978320475775       -0.0045501318982513975   0.0024265022772135703    -0.004549785149683258    -0.020019897563595124    -0.0018193699705895032   -0.03457891122687651     0.016378383633870904     -0.016378383633870904    0.03457891122687651      0.0018193699705895032    0.020019897563595124
0.114132979929224         -0.004920122669216109    0.002623863941705331     -0.004918233594716163    -0.0216415878921809      -0.001961097215316423    -0.03738477154241285     0.01770428086554838      -0.01770428086554838     0.037384771542412834     0.001961097215316423     0.0216415878921809
0.11470019911033615       -0.004944665001708619    0.0026369536830132766    -0.004942698436965842    -0.0217492627022408      -0.0019706026954062804   -0.03757098480032042     0.01779232479348591      -0.01779232479348591     0.03757098480032041      0.0019706026954062804    0.0217492627022408
0.11708551315363261       -0.0050478723196185175   0.0026919996772332535    -0.0050455798869033595   -0.02220206515515074     -0.0020105758766766277   -0.03835406321855022     0.01816257394007612      -0.01816257394007612     0.03835406321855021      0.0020105758766766277    0.02220206515515074
0.11812027411340112       -0.0050926745206148205   0.0027158801848334397    -0.005090143032105652    -0.022398280615151957    -0.00202758253269263     -0.03869356172415255     0.018322863641693242     -0.018322863641693242    0.038693561724152545     0.00202758253269263      0.022398280615151957
0.121252445805314         -0.005228642272073472    0.0027883576454958594    -0.005225301177289592    -0.022993416316817762    -0.002078847228523831    -0.03972356218979289     0.018808993101498958     -0.018808993101498958    0.03972356218979287      0.002078847228523831     0.022993416316817762
0.12185791927468587       -0.005254888719382127    0.002802355797016316     -0.005251372437593735    -0.023108199798090277    -0.002088644920561724    -0.039922334580188144    0.01890277970265959      -0.01890277970265959     0.03992233458018813      0.002088644920561724     0.023108199798090277
0.12263392971615791       -0.005288527711333653    0.0028202966520507267    -0.005284786899567338    -0.023255313064784507    -0.002101202219449849    -0.04017709297708884     0.019022982131754178     -0.019022982131754178    0.04017709297708883      0.002101202219449849     0.023255313064784507
0.1291619232233448        -0.005571496798481002    0.002971241861251659     -0.005565901143384445    -0.024492872586744853    -0.002206885392820793    -0.04232032375425477     0.02003433656033071      -0.02003433656033071     0.042320323754254756     0.002206885392820793     0.024492872586744853
0.12991019839333495       -0.005604046682804495    0.002988615849796978     -0.005598075263469132    -0.02463454687009463     -0.0022183601388765994   -0.042566241968876456    0.020150055237658435     -0.020150055237658435    0.04256624196887645      0.0022183601388765994    0.02463454687009463
0.1307836395364919        -0.005642045126097846    0.0030088876655527913    -0.0056356289046205245   -0.02479994287401946     -0.0022317623696280244   -0.04285326886733617     0.020285088362944736     -0.020285088362944736    0.04285326886733616      0.0022317623696280244    0.02479994287401946
0.1330266237973775        -0.005739624580549793    0.0030609453961006313    -0.005732066113585824    -0.02522467742714104     -0.0022661791049418123   -0.04359034980374477     0.02063185148154557      -0.02063185148154557     0.043590349803744766     0.0022661791049418123    0.02522467742714104
0.13802444366556535       -0.005956922470694366    0.003176860767231554     -0.005946523259203513    -0.02616935567650819     -0.0023416657937306734   -0.04523052027989745     0.021402830397119967     -0.021402830397119967    0.04523052027989745      0.0023416657937306734    0.02616935567650819
0.13903221310771308       -0.006000704503507712    0.003200208938653653     -0.005989854731338566    -0.026360201116408803    -0.0023573831023778998   -0.045561454748330656    0.02155863673429979      -0.02155863673429979     0.045561454748330656     0.0023573831023778998    0.026360201116408803
0.1396126610559566        -0.006026015626893959    0.0032137190070372387    -0.006014841748436861    -0.02647024122642372     -0.0023661787188478324   -0.04575255526864709     0.02164849276107124      -0.02164849276107124     0.04575255526864709      0.0023661787188478324    0.02647024122642372
0.13988083091951997       -0.00603770949285673     0.0032199607263957465    -0.006026385875668911    -0.02652108030920193     -0.002370242337774965    -0.04584084466757635     0.021690006696149417     -0.021690006696149417    0.04584084466757635      0.002370242337774965     0.02652108030920193
0.14134976531593912       -0.006101654759848634    0.003254076267392373     -0.006089746483395186    -0.02680006665110097     -0.00239344761170638     -0.046324524255455135    0.021917905216060594     -0.021917905216060594    0.046324524255455135     0.00239344761170638      0.02680006665110097
0.14318329566296426       -0.006181539460099935    0.003296738639731043     -0.006168189287115398    -0.02714562014946841     -0.002419462309068619    -0.0469260519878546      0.02219989414745486      -0.02219989414745486     0.0469260519878546       0.002419462309068619     0.02714562014946841
0.14347166515484502       -0.006194141668984497    0.003303452137551121     -0.006180553255244559    -0.027200139946293944    -0.0024235732703559052   -0.0470208527716006      0.022244286095662612     -0.022244286095662612    0.0470208527716006       0.0024235732703559052    0.027200139946293944
0.14556864419853022       -0.006285783013437106    0.0033522716716381353    -0.006270462149193581    -0.0275965996087342      -0.00245346755498573     -0.04771022963856296     0.022567097584814524     -0.022567097584814524    0.047710229638562945     0.00245346755498573      0.0275965996087342
0.14927731526597543       -0.006447652994401104    0.0034385496351825645    -0.006429268092671573    -0.028296729453940864    -0.002506117476336413    -0.0489280272650362      0.023137415287431788     -0.023137415287431788    0.0489280272650362       0.002506117476336413     0.028296729453940864
0.1517696087826666        -0.0065567011405948845   0.003496724726668032     -0.006536005232204827    -0.028767249030005035    -0.002540444467625463    -0.04974759739001318     0.02352079282763364      -0.02352079282763364     0.04974759739001318      0.002540444467625463     0.028767249030005035
0.15343678460464946       -0.006629584762321689    0.0035355982611063866    -0.006607226931862547    -0.029081282468774457    -0.002562943419487669    -0.05029487203541274     0.023776532986125976     -0.023776532986125976    0.05029487203541273      0.002562943419487669     0.029081282468774457
0.15802292026039913       -0.006830076019400935    0.003642533174630213     -0.00680314650552508     -0.029945138537011598    -0.0026248344594078194   -0.05180033758479284     0.024480033507189088     -0.024480033507189088    0.051800337584792834     0.0026248344594078194    0.029945138537011598
0.15955521205707787       -0.006897242662799436    0.00367829924853919      -0.006868458046655494    -0.03023341976660332     -0.0026444491154055437   -0.05230321525783843     0.02471424460664067      -0.02471424460664067     0.05230321525783843      0.0026444491154055437    0.03023341976660332
0.1611517344764504        -0.006967481160407093    0.003715702684034731     -0.006936415418594263    -0.03053351594308709     -0.0026635913014586817   -0.05282773204729545     0.024957807405667057     -0.024957807405667057    0.05282773204729545      0.0026635913014586817    0.03053351594308709
0.16401749650058572       -0.007093109523832736    0.003782752647055909     -0.007058398088411548    -0.03107155346014398     -0.002699115364812992    -0.05376806934247941     0.02539563124714844      -0.02539563124714844     0.05376806934247941      0.002699115364812992     0.03107155346014398
0.16446944121958426       -0.007112912155592276    0.0037933199651227416    -0.007077615952454535    -0.031156328225634515    -0.0027046796032653645   -0.05391624801637093     0.025464599394001804     -0.025464599394001804    0.05391624801637093      0.0027046796032653645    0.031156328225634515
0.16500047040782587       -0.007136179991294874    0.0038057364269133654    -0.007100196693667966    -0.03125593747652156     -0.0027112175113420283   -0.05409035603800173     0.025545636072822214     -0.025545636072822214    0.05409035603800172      0.0027112175113420283    0.03125593747652156
0.16554104482631893       -0.007159959954933963    0.0038184100213596826    -0.00712315573782721     -0.03135731279709776     -0.0027174729773618757   -0.054267772925255836    0.025627933105519963     -0.025627933105519963    0.05426777292525583      0.0027174729773618757    0.03135731279709776
0.16769178736831547       -0.007254530891934842    0.0038688143614871084    -0.007214816741861533    -0.03176188566685453     -0.002743762099115129    -0.054974771835777175    0.025956648268037775     -0.025956648268037775    0.05497477183577717      0.002743762099115129     0.03176188566685453
0.16868217111308362       -0.007298065753931158    0.0038921172256727466    -0.00725681934802876     -0.03194705722295915     -0.0027547942072344866   -0.05529976057699562     0.026107497561270964     -0.026107497561270964    0.05529976057699562      0.0027547942072344866    0.03194705722295915
0.16911109186120798       -0.007316920067398636    0.003902209356114857     -0.007275010063855422    -0.032027252321874415    -0.002759572052279847    -0.055440508458563555    0.02617282818896899      -0.02617282818896899     0.055440508458563555     0.002759572052279847     0.032027252321874415
0.17047574634511          -0.0073771402252306925   0.0039343332612573195    -0.007332966357900682    -0.03228314609829218     -0.0027745851973693856   -0.055889145665836096    0.026380584764913305     -0.026380584764913305    0.055889145665836096     0.0027745851973693856    0.03228314609829218
0.1705053589432141        -0.007378445398270246    0.00393502857971054      -0.007334224321765949    -0.0322887023444727      -0.0027749207513916904   -0.05589887382273594     0.02638509222965493      -0.02638509222965493     0.05589887382273594      0.0027749207513916904    0.0322887023444727
0.17154271959180292       -0.007424166991021835    0.003959386320935136     -0.007378292127184032    -0.032483343527974426    -0.002786675563887049    -0.056239661453585235    0.026542993489497867     -0.026542993489497867    0.05623966145358522      0.002786675563887049     0.032483343527974426
0.17265965267604033       -0.007473275253307083    0.003985599478488963     -0.007425596906108322    -0.032692139695580595    -0.0027990386823522283   -0.05660573656651437     0.026712635553286006     -0.026712635553286006    0.05660573656651436      0.0027990386823522283    0.032692139695580595
0.17272768285184367       -0.007476266340028221    0.0039871960698532214    -0.0074284781462398706   -0.03270485705545629     -0.002799791695343371    -0.056628033474575616    0.026722968114462696     -0.026722968114462696    0.05662803347457561      0.002799791695343371     0.03270485705545629
0.17385993655595824       -0.00752621602093483     0.004013808035844799     -0.007476268984989755    -0.03291608387429431     -0.0028112197905549655   -0.0569989320893631      0.02689406800562376      -0.02689406800562376     0.0569989320893631       0.0028112197905549655    0.03291608387429431
0.1754702775748868        -0.007597363326800924    0.00405175567556304      -0.007544077394946933    -0.03321576920670048     -0.0028263158994967633   -0.05752630326007872     0.027136849952875        -0.027136849952875       0.05752630326007872      0.0028263158994967633    0.03321576920670048
0.1756867643938391        -0.007606928042437502    0.004056857181214813     -0.0075531932448180406   -0.03325605752050275     -0.002828345350752712    -0.05759720060779164     0.027169488438041588     -0.027169488438041588    0.05759720060779162      0.002828345350752712     0.03325605752050275
0.17774083679531558       -0.007697783171774223    0.004105378484757146     -0.007639829064639292    -0.0336387471478342      -0.002847614460737275    -0.05827101805637709     0.02747988536928015      -0.02747988536928015     0.05827101805637707      0.002847614460737275     0.0336387471478342
0.17781807061019458       -0.007701199355271434    0.004107202902130548     -0.007643086600676075    -0.03365313640685555     -0.0028483389857697763   -0.05829635381963885     0.02749155639855306      -0.02749155639855306     0.058296353819638824     0.0028483389857697763    0.03365313640685555
0.18360854421119802       -0.007957797055968184    0.004244003689454587     -0.007887465870775736    -0.03473344652667558     -0.002902258302802805    -0.060197468663403114    0.028366280439530316     -0.028366280439530316    0.060197468663403086     0.002902258302802805     0.03473344652667558