% Model:              Cylinder_slice_potential_1.mph
% Version:            COMSOL 6.2.0.415
% Date:               May 17 2024, 18:28
% Dimension:          1
% Nodes:              884
% Expressions:        11
% Description:        Line graph
% Arc length (m)          Magnetic scalar potential Magnetic scalar potential Magnetic scalar potential Magnetic scalar potential Magnetic scalar potential Magnetic scalar potential Magnetic scalar potential Magnetic scalar potential Magnetic scalar potential Magnetic scalar potential Magnetic scalar potential
0                         -0.0023695396642012365   1.355128015209635E-6     2.706731794163063E-7     -0.004733931251639175    0.004744227405165762     -0.004742062019730442    -0.004736096637074502    0.004736096637074502     0.004742062019730442     -0.004744227405165762    0.004733931251639175
8.854740675874168E-4      -0.002377775341076845    3.971176850447584E-6     -1.006355408256847E-6    -0.004747662573235372    0.004763438791072001     -0.004771489634338067    -0.004739611729969314    0.004739611729969314     0.004771489634338067     -0.004763438791072001    0.004747662573235372
0.003242847122835739      -0.002399700955241007    1.0935811119417717E-5    -4.40615320421581E-6     -0.00478421908994062     0.004814584731023399     -0.004849833956657135    -0.004748969864306891    0.004748969864306891     0.004849833956657135     -0.004814584731023399    0.00478421908994062
0.0058010956440110424     -0.00242109459509432     1.994100504682915E-5     -8.009301937034708E-6    -0.0048144033827962895   0.004869974997580986     -0.004934049413077271    -0.004750328967300009    0.004750328967300009     0.004934049413077271     -0.004869974997580986    0.0048144033827962895
0.0073889769170505295     -0.0024355419580927655   2.6057270453063924E-5    -1.013634022547125E-5    -0.004833457465728223    0.004908710366642836     -0.004989801088446613    -0.00475236674392445     0.00475236674392445      0.004989801088446613     -0.004908710366642836    0.004833457465728223
0.009826504388591957      -0.002459653211354192    3.664143843959048E-5     -1.3434193557979776E-5   -0.004863118881621531    0.004975493963795235     -0.00508296751225908     -0.00475564533315769     0.00475564533315769      0.00508296751225908      -0.004975493963795235    0.004863118881621531
0.01565127830365567       -0.00251715432267661     5.818837346495738E-5     -2.2229795654579023E-5   -0.004948662707576666    0.005119954583129777     -0.005297792948366415    -0.00477082434234003     0.00477082434234003      0.005297792948366415     -0.005119954583129777    0.004948662707576666
0.015695157614137263      -0.0025175874912688237   5.8350691293201274E-5    -2.2296054870970433E-5   -0.004949307128141928    0.005121042836933371     -0.00529941127590114     -0.00477093868917416     0.00477093868917416      0.00529941127590114      -0.005121042836933371    0.004949307128141928
0.015752418857836015      -0.0025180990382092563   5.85949016575762E-5      -2.2380588453666497E-5   -0.004949935725260451    0.0051224604275765745    -0.005301505135205913    -0.0047708910176311155   0.0047708910176311155    0.005301505135205913     -0.0051224604275765745   0.004949935725260451
0.015869541988896604      -0.002519238263522       5.91518431037347E-5      -2.2555064966399285E-5   -0.004951241257598394    0.005125711796489607     -0.005306152316220808    -0.0047708007378671966   0.0047708007378671966    0.005306152316220808     -0.005125711796489607    0.004951241257598394
0.02165342629363937       -0.002573091703817768    8.640095094101892E-5     -3.136525605017982E-5    -0.0050124415790132005   0.005279925236257874     -0.005530847284659319    -0.004761519530611758    0.004761519530611758     0.005530847284659319     -0.005279925236257874    0.0050124415790132005
0.02415147332654316       -0.002598507738753747    9.800849307287771E-5     -3.524597493844643E-5    -0.005043973898042649    0.005350057056972341     -0.005632024856479921    -0.004762006098535074    0.004762006098535074     0.005632024856479921     -0.005350057056972341    0.005043973898042649
0.02717503029294465       -0.0026292705020151143   1.1205789423038263E-4    -3.994307410219792E-5    -0.0050821396177478766   0.005434942390312584     -0.005754486983130178    -0.004762595024930288    0.004762595024930288     0.005754486983130178     -0.005434942390312584    0.0050821396177478766
0.03259043915660638       -0.0026855478311073773   1.3788726831330788E-4    -4.877390818747032E-5    -0.005152529490024719    0.005589661834404798     -0.005979853099904572    -0.004762338224524949    0.004762338224524949     0.005979853099904572     -0.005589661834404798    0.005152529490024719
0.039277215829438876      -0.0027580532447812607   1.7455273012938958E-4    -5.9705614403871596E-5   -0.005231270756789842    0.005800942222335204     -0.006278587137566188    -0.004753625841558865    0.004753625841558865     0.006278587137566188     -0.005800942222335204    0.005231270756789842
0.04502059642027653       -0.0028192794759289096   2.0987477821513955E-4    -7.020057787157687E-5    -0.005289736928698711    0.005987380975016932     -0.0065489855979895565   -0.0047281323057260915   0.0047281323057260915    0.0065489855979895565    -0.005987380975016932    0.005289736928698711
0.048726581744327785      -0.0028587864371151725   2.3266675408211408E-4    -7.697257912982838E-5    -0.00532746292850332     0.006107682819957375     -0.006723463452996012    -0.0047116822954646875   0.0047116822954646875    0.006723463452996012     -0.006107682819957375    0.00532746292850332
0.04954882457520876       -0.0028669662198190964   2.3768180799031995E-4    -7.845279805146394E-5    -0.005334698207873092    0.006133166671403298     -0.00676078905581502     -0.004707075823461375    0.004707075823461375     0.00676078905581502      -0.006133166671403298    0.005334698207873092
0.05082948212387879       -0.0028814635672872223   2.4612745718381875E-4    -8.063713818825794E-5    -0.005347093315776024    0.006178760953372871     -0.006823858058878944    -0.004701996210269954    0.004701996210269954     0.006823858058878944     -0.006178760953372871    0.005347093315776024
0.051063581935176024      -0.0028841136327244056   2.476712929145603E-4     -8.103642807989483E-5    -0.0053493590990247135   0.006187095431872914     -0.006835386856512082    -0.00470106767438555     0.00470106767438555      0.006835386856512082     -0.006187095431872914    0.0053493590990247135
0.05300820369976114       -0.0029057717525036763   2.617922445607033E-4     -8.472757238796735E-5    -0.0053650770608771135   0.006258009949137593     -0.006935830528241342    -0.00468725648177337     0.00468725648177337      0.006935830528241342     -0.006258009949137593    0.0053650770608771135
0.05374557267912887       -0.0029139826395638635   2.6707881799660027E-4    -8.613203002934383E-5    -0.005371256945255304    0.006284673613000153     -0.006973729853234913    -0.004682200705020548    0.004682200705020548     0.006973729853234913     -0.006284673613000153    0.005371256945255304
0.0543931873929934        -0.0029211940783724463   2.717218974301126E-4     -8.73655338232447E-5     -0.005376684599747536    0.006308091713742253     -0.00700701598432822     -0.004677760329161574    0.004677760329161574     0.00700701598432822      -0.006308091713742253    0.005376684599747536
0.05527277327016056       -0.0029310645576516225   2.7789551760331417E-4    -8.903624563966856E-5    -0.005384587545051981    0.0063396706855545154    -0.0070519606506718735   -0.004672297579934627    0.004672297579934627     0.0070519606506718735    -0.0063396706855545154   0.005384587545051981
0.05564864853965879       -0.002935282530171926    2.8053370360267967E-4    -8.975019440869014E-5    -0.005387964727170576    0.006353165393517131     -0.007071166948786662    -0.00466996317190105     0.00466996317190105      0.007071166948786662     -0.006353165393517131    0.005387964727170576
0.06213297462455462       -0.003007380977638182    3.2601171353279125E-4    -1.0197569130505243E-4   -0.0054446295798982036   0.006584894330654529     -0.007400699861094959    -0.00462882404945778     0.00462882404945778      0.007400699861094959     -0.006584894330654529    0.0054446295798982036
0.06437362054067582       -0.0030327196479687586   3.435071608989337E-4     -1.0663034393921557E-4   -0.005461439188997581    0.006669439402877458     -0.007522482154391192    -0.004608396437483854    0.004608396437483854     0.007522482154391192     -0.006669439402877458    0.005461439188997581
0.06503887644844192       -0.003040544914230953    3.4843316485369004E-4    -1.0800791181354082E-4   -0.005467821981155002    0.006694357675768814     -0.007558420970277151    -0.004603758686646672    0.004603758686646672     0.007558420970277151     -0.006694357675768814    0.005467821981155002
0.06601940476382907       -0.0030520786639593716   3.5569365860197897E-4    -1.100383249092763E-4    -0.005477229651749913    0.006731085004087575     -0.007611391603361796    -0.0045969230524757      0.0045969230524757       0.007611391603361796     -0.006731085004087575    0.005477229651749913
0.0671859114768053        -0.0030657422501495614   3.65311823096183E-4      -1.122779099798645E-4    -0.0054846606709300335   0.006778308329668215     -0.00767653160950714     -0.004586437391091113    0.004586437391091113     0.00767653160950714      -0.006778308329668215    0.0054846606709300335
0.0706824114332587        -0.003106697632564038    3.9414141435446467E-4    -1.1899086672042722E-4   -0.005506934488946389    0.0069198560413097614    -0.007871782975073188    -0.00455500755518297     0.00455500755518297      0.007871782975073188     -0.0069198560413097614   0.005506934488946389
0.07129511298882088       -0.0031141188403985397   3.996420546384708E-4     -1.2028448302241283E-4   -0.005510449448971316    0.00694602591262284      -0.007908301776802152    -0.004548173584792012    0.004548173584792012     0.007908301776802152     -0.00694602591262284     0.005510449448971316
0.07472890880572548       -0.003154996386435738    4.3017481147434927E-4    -1.2755425747408068E-4   -0.005529685368344748    0.007090300177398201     -0.008110734237190855    -0.004509251308552103    0.004509251308552103     0.008110734237190855     -0.007090300177398201    0.005529685368344748
0.07851993791247544       -0.0031988105351519786   4.6291391981467486E-4    -1.3546521494862124E-4   -0.0055507401706544135   0.007244501969953495     -0.008328223689542474    -0.004467018451065443    0.004467018451065443     0.008328223689542474     -0.007244501969953495    0.0055507401706544135
0.07973762678128246       -0.0032126227908858196   4.740369002534055E-4     -1.3802471608319647E-4   -0.0055552337453442045   0.0072952574181990686    -0.008399455146864649    -0.004451036016678633    0.004451036016678633     0.008399455146864649     -0.0072952574181990686   0.0055552337453442045
0.08243692822263513       -0.003244748602474783    4.994005748597038E-4     -1.4414916787373238E-4   -0.005567892151865381    0.007411102258033747     -0.008564295601023614    -0.004414698808875523    0.004414698808875523     0.008564295601023614     -0.007411102258033747    0.005567892151865381
0.08396987495490534       -0.0032615759852030928   5.149375521254661E-4     -1.4756147009575626E-4   -0.00556858519441281     0.007477718746399558     -0.008658210507165618    -0.004388093433646762    0.004388093433646762     0.008658210507165618     -0.007477718746399558    0.00556858519441281
0.08478764836010584       -0.003270552804674154    5.23225985466088E-4      -1.493818138486962E-4    -0.005568954908344827    0.007513256310351787     -0.008708310821141367    -0.004373900397555259    0.004373900397555259     0.008708310821141367     -0.007513256310351787    0.005568954908344827
0.08896682419761083       -0.0033221341034734785   5.660009565531537E-4     -1.5839866870090948E-4   -0.005579860012091134    0.007708676401802781     -0.008975865751410069    -0.0043126706624838605   0.0043126706624838605    0.008975865751410069     -0.007708676401802781    0.005579860012091134
0.09417150124549512       -0.003385452683400194    6.229356799998642E-4     -1.7044151425626725E-4   -0.005583864383825864    0.007957946349774911     -0.009321478463825061    -0.004220332269775726    0.004220332269775726     0.009321478463825061     -0.007957946349774911    0.005583864383825864
0.09453203748771295       -0.0033898388619583095   6.268796386843966E-4     -1.7127574128749176E-4   -0.005584141773013397    0.007975213674819842     -0.009345419605119788    -0.004213935842713463    0.004213935842713463     0.009345419605119788     -0.007975213674819842    0.005584141773013397
0.0962557666064673        -0.003410699039282618    6.452535273752522E-4     -1.7524109276019565E-4   -0.005586601867480262    0.00805619428965021      -0.00945812303173179     -0.004184673125398697    0.004184673125398697     0.00945812303173179      -0.00805619428965021     0.005586601867480262
0.09807119008843873       -0.003432200375126329    6.662599452972734E-4     -1.7929159593731546E-4   -0.0055827872981101      0.008146014202395215     -0.009580346969893756    -0.004148454530611577    0.004148454530611577     0.009580346969893756     -0.008146014202395215    0.0055827872981101
0.09848741196069931       -0.003437980740659895    6.7107727290151E-4       -1.8026046611990638E-4   -0.005583771527094888    0.008168151435544694     -0.009610235164503959    -0.0041416877981356355   0.0041416877981356355    0.009610235164503959     -0.008168151435544694    0.005583771527094888
0.09875456168361656       -0.0034416908365331998   6.741692481686528E-4     -1.808823301257939E-4    -0.005584403249063618    0.008182360097069182     -0.009629418738075546    -0.004137344608057265    0.004137344608057265     0.009629418738075546     -0.008182360097069182    0.005584403249063618
0.10318725949973782       -0.0034939630697391044   7.287687613543598E-4     -1.9143869203115113E-4   -0.0055673746235397345   0.008408477655416684     -0.009939987191665906    -0.004035865087290524    0.004035865087290524     0.009939987191665906     -0.008408477655416684    0.0055673746235397345
0.10690366509770338       -0.0035378213086503163   7.740053256690769E-4     -2.0027206242923895E-4   -0.005554714890010359    0.008596570344590907     -0.010198746844024834    -0.0039525383905764455   0.0039525383905764455    0.010198746844024834     -0.008596570344590907    0.005554714890010359
0.10822242163688867       -0.0035529748031141784   7.911229729489722E-4     -2.0362694183440551E-4   -0.005547088454719065    0.008664810757737652     -0.010293826292412912    -0.003918072920043818    0.003918072920043818     0.010293826292412912     -0.008664810757737652    0.005547088454719065
0.11068485786849207       -0.003584913867809596    8.238673780862431E-4     -2.095925570203414E-4    -0.0055365958294418295   0.008803059641796554     -0.0104798000979593      -0.0038598553732790957   0.0038598553732790957    0.0104798000979593       -0.008803059641796554    0.0055365958294418295
0.1120673544006318        -0.003602845559040621    8.422512151855613E-4     -2.129418589030815E-4    -0.005530704908136887    0.0088806773280256       -0.010584212199250265    -0.0038271700369122306   0.0038271700369122306    0.010584212199250265     -0.0088806773280256      0.005530704908136887
0.11573614010696798       -0.003645146542105628    8.929125140324588E-4     -2.2196549018960713E-4   -0.00549941750287231     0.0090811686655502       -0.010856892587067072    -0.0037236935813554483   0.0037236935813554483    0.010856892587067072     -0.0090811686655502      0.00549941750287231
0.11949787629400269       -0.00369131036583402     9.475379545813027E-4     -2.3178662573302339E-4   -0.005467153370856227    0.009298088092479853     -0.011152381098344053    -0.0036128603649920356   0.0036128603649920356    0.011152381098344053     -0.009298088092479853    0.005467153370856227
0.11983042002817396       -0.003695391324615545    9.523669343602326E-4     -2.3265483044622622E-4   -0.005464301167935299    0.009317264130526883     -0.011178502774096705    -0.003603062524365485    0.003603062524365485     0.011178502774096705     -0.009317264130526883    0.005464301167935299
0.12098354527789226       -0.003709060953528768    9.703307447138374E-4     -2.3563142171741043E-4   -0.005449655359785666    0.009386588454329403     -0.0112716398280687      -0.00356460398604638     0.00356460398604638      0.0112716398280687       -0.009386588454329403    0.005449655359785666
0.12329540645028116       -0.003736383569283095    0.0010070244453256158    -2.415202927908236E-4    -0.005417774973752636    0.009527759303379738     -0.011459921645706342    -0.003485612631426045    0.003485612631426045     0.011459921645706342     -0.009527759303379738    0.005417774973752636
0.12336787993971417       -0.003737278807433738    0.001008086761845074     -2.4171145630340248E-4   -0.005417143154545864    0.009531972075189084     -0.01146566372561632     -0.0034834515041186416   0.0034834515041186416    0.01146566372561632      -0.009531972075189084    0.005417143154545864
0.12359389380558011       -0.00374007067294043     0.0010113996734381887    -2.4230761366837128E-4   -0.005415172780239779    0.009545109911521937     -0.011483570820868923    -0.003476711870892806    0.003476711870892806     0.011483570820868923     -0.009545109911521937    0.005415172780239779
0.12370151347741518       -0.0037415464829771766   0.0010133188705315225    -2.4258236900735506E-4   -0.005413465830389206    0.009552720101519498     -0.011493379053578352    -0.003472806878330363    0.003472806878330363     0.011493379053578352     -0.009552720101519498    0.005413465830389206
0.12387691751983035       -0.00374395183361492     0.0010164468760589691    -2.4303017930366174E-4   -0.00541068375626758     0.009565123578192098     -0.011509365012621406    -0.0034664423218382827   0.0034664423218382827    0.011509365012621406     -0.009565123578192098    0.00541068375626758
0.12401062646460913       -0.003745635404890922    0.0010186552218674535    -2.4338324155914864E-4   -0.005408838110416078    0.009573703509147607     -0.011520769441620811    -0.0034617721779428854   0.0034617721779428854    0.011520769441620811     -0.009573703509147607    0.005408838110416078
0.12450055006345853       -0.0037513044501070666   0.0010262299333665416    -2.446453023601436E-4    -0.005402500309555084    0.00960271749087318      -0.011559879909754343    -0.003445337890673932    0.003445337890673932     0.011559879909754343     -0.00960271749087318     0.005402500309555084
0.12877046919374416       -0.003800712898027758    0.00109224717689657      -2.5564476752248255E-4   -0.005347263335455735    0.00985558825665529      -0.011900746396835166    -0.003302105195275871    0.003302105195275871     0.011900746396835166     -0.00985558825665529     0.005347263335455735
0.13109260801115488       -0.00383130136672727     0.0011299322899098528    -2.617419058618612E-4    -0.005319773487172425    0.010005431979736648     -0.012099367226631552    -0.0032258382402775318   0.0032258382402775318    0.012099367226631552     -0.010005431979736648    0.005319773487172425
0.13174690346602755       -0.003838902959291337    0.0011410316113364318    -2.6347393064461776E-4   -0.0053086068071518475   0.010047005030013493     -0.012154796475170449    -0.0032008153619949016   0.0032008153619949016    0.012154796475170449     -0.010047005030013493    0.0053086068071518475
0.13324374694760324       -0.003856293259337561    0.0011664237286185554    -2.674363148957834E-4    -0.005283060592402588    0.01014211244494765      -0.012281602964113932    -0.0031435700732363172   0.0031435700732363172    0.012281602964113932     -0.01014211244494765     0.005283060592402588
0.13412300249765358       -0.003864098822632653    0.001181872895368163     -2.6980248993355816E-4   -0.005261788918895048    0.010194606371635556     -0.012353026291104036    -0.0031033689994265793   0.0031033689994265793    0.012353026291104036     -0.010194606371635556    0.005261788918895048
0.1344433585634512        -0.0038681583751795073   0.0011888875570523999    -2.706217396217109E-4    -0.005252141037688656    0.010220492463029364     -0.012385466380003068    -0.003087167120714966    0.003087167120714966     0.012385466380003068     -0.010220492463029364    0.005252141037688656
0.13622937702905943       -0.003886766038812324    0.0012232117804430159    -2.756837404255867E-4    -0.005206631697997944    0.010340432457251345     -0.012545902380656053    -0.0030011617745932476   0.0030011617745932476    0.012545902380656053     -0.010340432457251345    0.005206631697997944
0.13671193949154115       -0.0038910902504781675   0.0012299097110194386    -2.770431544093659E-4    -0.005200623985535479    0.010363737016377184     -0.012580082251652126    -0.00298427875026055     0.00298427875026055      0.012580082251652126     -0.010363737016377184    0.005200623985535479
0.1367992691496083        -0.003891872806013561    0.0012311218400855668    -2.772891684854808E-4    -0.00519953676571234     0.010367954458341894     -0.012586267806225756    -0.0029812234178284913   0.0029812234178284913    0.012586267806225756     -0.010367954458341894    0.00519953676571234
0.13773165153252365       -0.003901158367309782    0.0012492934652823023    -2.7992994212664693E-4   -0.005174156107279242    0.010430477361959881     -0.01266991689897307     -0.0029347165702660635   0.0029347165702660635    0.01266991689897307      -0.010430477361959881    0.005174156107279242
0.13778151933779176       -0.0039016549989182407   0.0012502653616665762    -2.800711820171767E-4    -0.005172798640905457    0.0104338213547675       -0.012674390810904927    -0.002932229184768041    0.002932229184768041     0.012674390810904927     -0.0104338213547675      0.005172798640905457
0.13840910360893835       -0.003909052615321562    0.001261722374862904     -2.817798202917117E-4    -0.005160057387221256    0.010476153074064987     -0.012730391636398695    -0.00290581882488756     0.00290581882488756      0.012730391636398695     -0.010476153074064987    0.005160057387221256
0.14326534761496632       -0.003963821107014031    0.0013523888240647936    -2.952911062665247E-4    -0.005051640166899778    0.01080364426115634      -0.013165973111288554    -0.0026893113167675794   0.0026893113167675794    0.013165973111288554     -0.01080364426115634     0.005051640166899778
0.14415790634579054       -0.003972772418234679    0.00137043786620532      -2.977433384610364E-4    -0.0050252045916975435   0.01086588508124117      -0.013247831788929477    -0.0026432578840092495   0.0026432578840092495    0.013247831788929477     -0.01086588508124117     0.0050252045916975435
0.14507052466032114       -0.0039815645372910545   0.0013880491547662095    -3.002464978814273E-4    -0.004999967601809188    0.010926290547355028     -0.013328262530406457    -0.0025979956187577673   0.0025979956187577673    0.013328262530406457     -0.010926290547355028    0.004999967601809188
0.14517862465733705       -0.003982748102090394    0.0013902179722670967    -3.005464797061346E-4    -0.004997028206204035    0.01093396420215754      -0.013338336039806626    -0.002592656368554956    0.002592656368554956     0.013338336039806626     -0.01093396420215754     0.004997028206204035
0.14572559920672185       -0.003988736814769925    0.0014011919593900641    -3.0206435600513883E-4   -0.004982155175390211    0.010972792083689484     -0.013389306931730608    -0.002565640327349099    0.002565640327349099     0.013389306931730608     -0.010972792083689484    0.004982155175390211
0.1482280522804568        -0.004014312053044727    0.0014524625876254874    -3.0916877796157804E-4   -0.004907911455059302    0.0111493367571196       -0.01362268698081224     -0.002434561231366676    0.002434561231366676     0.01362268698081224      -0.0111493367571196      0.004907911455059302
0.1498857070899392        -0.004031253396390922    0.001486424864229854     -3.13874831932495E-4     -0.0048587315278222605   0.011266282057741422     -0.013777280713201397    -0.002347732872362298    0.002347732872362298     0.013777280713201397     -0.011266282057741422    0.0048587315278222605
0.1523595299828505        -0.004056578681655163    0.0015362931720188375    -3.208980101277378E-4    -0.004787869887764765    0.011438444838855883     -0.014005628919877802    -0.002220685806742859    0.002220685806742859     0.014005628919877802     -0.011438444838855883    0.004787869887764765
0.15304209480450537       -0.004064463775158151    0.001550575107538007     -3.22857793855827E-4     -0.004768633403125589    0.011489221697507011     -0.014072084048353643    -0.00218577105227897     0.00218577105227897      0.014072084048353643     -0.011489221697507011    0.004768633403125589
0.1532869482823293        -0.004067113928311061    0.001555802485933047     -3.2357647512440386E-4   -0.0047611262993205936   0.01150732941392364      -0.014095941214918885    -0.0021725144983253605   0.0021725144983253605    0.014095941214918885     -0.01150732941392364     0.0047611262993205936
0.15403107679578606       -0.004073824269779503    0.0015725684035645573    -3.257524417772027E-4    -0.004732953095974144    0.01156234398314386      -0.014168363517361499    -0.002126933561756519    0.002126933561756519     0.014168363517361499     -0.01156234398314386     0.004732953095974144
0.1542907099739278        -0.00407671715208872     0.001578119063880199     -3.264831737645257E-4    -0.004725009807594943    0.01158185880075993      -0.014193724190876153    -0.0021131444174787356   0.0021131444174787356    0.014193724190876153     -0.01158185880075993     0.004725009807594943
0.15565746017103757       -0.0040919457430362936   0.0016073386194654722    -3.30329862754185E-4     -0.0046831950786929075   0.011684587893452258     -0.014327226795485752    -0.0020405561766594243   0.0020405561766594243    0.014327226795485752     -0.011684587893452258    0.0046831950786929075
0.15709504393780824       -0.004102792379678241    0.0016384952786774498    -3.345278721064501E-4    -0.00462821041174993     0.011782959106963026     -0.014459182083814644    -0.001951987434898326    0.001951987434898326     0.014459182083814644     -0.011782959106963026    0.00462821041174993
0.1577566062424352        -0.0041077838981554      0.0016528332753557614    -3.3645975587289574E-4   -0.004602906993735094    0.011828228598886497     -0.014519906645869678    -0.0019112289467519256   0.0019112289467519256    0.014519906645869678     -0.011828228598886497    0.004602906993735094
0.15994123217189846       -0.004129501942626569    0.0017027608321197563    -3.4281239261264526E-4   -0.0045219709593444495   0.011996036811161823     -0.014738535952063       -0.001779471818443284    0.001779471818443284     0.014738535952063        -0.011996036811161823    0.0045219709593444495
0.1604764542260802        -0.004134788365516589    0.001715309986323707     -3.4441092557168615E-4   -0.0045012904743488005   0.01203786298771755      -0.014793150392291055    -0.0017460030697753085   0.0017460030697753085    0.014793150392291055     -0.01203786298771755     0.0045012904743488005
0.16263971809940342       -0.004153763462325977    0.0017691726610284176    -3.5077551699754146E-4   -0.004403111009556865    0.01221194283974704      -0.015018146975727384    -0.0015969068735765314   0.0015969068735765314    0.015018146975727384     -0.01221194283974704     0.004403111009556865
0.16442044084681748       -0.004167363364748514    0.0018072067659238873    -3.560841011946643E-4    -0.004337442836504022    0.012332010622490033     -0.01518068343204736     -0.0014887700269467052   0.0014887700269467052    0.01518068343204736      -0.012332010622490033    0.004337442836504022
0.16822754567599546       -0.004195839591123282    0.0018933483979775604    -3.674250660708707E-4    -0.004181334252597364    0.012602024111895763     -0.01554142464046274     -0.0012419337240303964   0.0012419337240303964    0.01554142464046274      -0.012602024111895763    0.004181334252597364
0.1687950098335911        -0.004201215294702752    0.0019078215698781617    -3.692175448666762E-4    -0.004155836059237722    0.012649025119573285     -0.015602765478506704    -0.001202095700304311    0.001202095700304311     0.015602765478506704     -0.012649025119573285    0.004155836059237722
0.16963077021081033       -0.004209450797567571    0.0019297015430668732    -3.718433883936026E-4    -0.0041171705195089305   0.012720632670761352     -0.015695379777910183    -0.0011424234123601081   0.0011424234123601081    0.015695379777910183     -0.012720632670761352    0.0041171705195089305
0.17082674841857406       -0.00421796380749738     0.0019607162959666643    -3.7554651040342963E-4   -0.004055964768708483    0.012815890461281034     -0.01582026254450848     -0.0010515926854810444   0.0010515926854810444    0.01582026254450848      -0.012815890461281034    0.004055964768708483
0.1727863189656551        -0.004229792362667933    0.0020117801745651994    -3.8143846330324636E-4   -0.00394999805485325     0.012969171395818477     -0.016020679102244455    -8.984903484272775E-4    8.984903484272775E-4     0.016020679102244455     -0.012969171395818477    0.00394999805485325
0.17717308319643532       -0.004258437056898571    0.002122959800729322     -3.9468656480949333E-4   -0.0037267409708471493   0.013307007256747137     -0.01646449977522309     -5.692484523712E-4       5.692484523712E-4        0.01646449977522309      -0.013307007256747137    0.0037267409708471493
0.17804532019697455       -0.004261980912520546    0.002145316915667646     -3.971084514685594E-4    -0.003676444883912394    0.013371478766169793     -0.01654834637791828     -4.995772721639164E-4    4.995772721639164E-4     0.01654834637791828      -0.013371478766169793    0.003676444883912394