% Model:              Cylinder_slice_potential_4.mph
% Version:            COMSOL 6.2.0.415
% Date:               May 17 2024, 21:56
% Dimension:          1
% Nodes:              829
% Expressions:        11
% Description:        Line graph
% Arc length (m)          Magnetic scalar potential Magnetic scalar potential Magnetic scalar potential Magnetic scalar potential Magnetic scalar potential Magnetic scalar potential Magnetic scalar potential Magnetic scalar potential Magnetic scalar potential Magnetic scalar potential Magnetic scalar potential
0                         -2.716330183859406E-7    -1.1237799156789268E-7   -1.243931768098328E-7    -1.3779727187212754E-6   -2.914406451556053E-7    -7.037047692715685E-7    -3.828273042705922E-7    3.828273042705922E-7     7.03704769263791E-7      2.914406451556053E-7     1.3779727187212754E-6
0.0013487467024737943     -5.834153515141213E-5    3.085140587684119E-5     5.7912625159114496E-5    2.0752164796415153E-4    4.4088778856982104E-4    2.2413212703146753E-5    -2.557793533087934E-4    2.557793533087934E-4     -2.241321270315445E-5    -4.4088778856982104E-4   -2.0752164796415153E-4
0.002323088219091229      -1.0029105631749179E-4   5.32211459587689E-5      9.984328025886214E-5     3.584544462767661E-4     7.596186715467536E-4     3.912757052419475E-5     -4.4029179579415983E-4   4.4029179579415983E-4    -3.912757052420234E-5    -7.596186715467536E-4    -3.584544462767661E-4
0.0025729493149550275     -1.1104863274295962E-4   5.8957664084839255E-5    1.105960186517428E-4     3.9715980137556455E-4    8.413543323474232E-4     4.341381686657087E-5     -4.876083478384072E-4    4.876083478384072E-4     -4.341381686657835E-5    -8.413543323474232E-4    -3.9715980137556455E-4
0.005624834263820664      -2.424282704472585E-4    1.290511164404502E-4     2.4185003284397407E-4    8.696969398027264E-4     0.0018394100215917805    9.53902411600688E-5      -0.0010651033229490989   0.0010651033229490989    -9.539024116007573E-5    -0.0018394100215917805   -8.696969398027264E-4
0.00778586878360156       -3.3545679181213196E-4   1.7863723912651966E-4    3.349183537596505E-4     0.0012046715487938954    0.0025464987160424414    1.328481140348177E-4     -0.001474675281283345    0.001474675281283345     -1.3284811403482485E-4   -0.0025464987160424414   -0.0012046715487938954
0.01031580537661348       -4.443699494236077E-4    2.3672743205069833E-4    4.43754246018368E-4      0.0015964593813783518    0.0033739391790728007    1.7609478907420115E-4    -0.0019535745867686324   0.0019535745867686324    -1.7609478907420768E-4   -0.0033739391790728007   -0.0015964593813783518
0.010466251280388358      -4.5084740031857033E-4   2.4018115141334766E-4    4.50222529937402E-4      0.0016197387733525104    0.00342312837462681      1.786518648724639E-4     -0.001982041466146746    0.001982041466146746     -1.786518648724704E-4    -0.00342312837462681     -0.0016197387733525104
0.010642798692661016      -4.584485560471357E-4    2.4423023735699046E-4    4.578234468775093E-4     0.0016470873874867371    0.003480881611675298     1.8170596334483361E-4    -0.0020155001875333776   0.0020155001875333776    -1.8170596334484015E-4   -0.003480881611675298    -0.0016470873874867371
0.013752630881248399      -5.923582034541526E-4    3.1563585398444716E-4    5.91633935073125E-4      0.0021287268953375364    0.004498159709154165     2.3491177143088963E-4    -0.0026043445852475047   0.0026043445852475047    -2.3491177143089705E-4   -0.004498159709154165    -0.0021287268953375364
0.018181717479244665      -7.829949788743459E-4    4.1736221972707633E-4    7.821850073171889E-4     0.002814836730701291     0.005946816646198692     3.1066341233886946E-4    -0.0034426433278362573   0.0034426433278362573    -3.10663412338878E-4     -0.005946816646198692    -0.002814836730701291
0.018920401293800605      -8.147894126354156E-4    4.343281602714934E-4     8.139651474879976E-4     0.0029292662454956367    0.0061884238960373174    3.23297283866713E-4      -0.0035824549344083798   0.0035824549344083798    -3.2329728386672164E-4   -0.0061884238960373174   -0.0029292662454956367
0.01925479565808384       -8.291848366052834E-4    4.4202148360118017E-4    8.283579872506467E-4     0.0029811267265955595    0.00629786607301671      3.2899782498851477E-4    -0.0036457371714096526   0.0036457371714096526    -3.2899782498852355E-4   -0.00629786607301671     -0.0029811267265955595
0.019603588600108         -8.442000179933528E-4    4.5002642179609877E-4    8.433671560208719E-4     0.003035147853485077     0.006411947925458506     3.3498932270852077E-4    -0.0037117893946819365   0.0037117893946819365    -3.349893227085296E-4    -0.006411947925458506    -0.003035147853485077
0.02177609715310804       -9.37755030921227E-4     4.998971957984017E-4     9.36905947295397E-4      0.0033718053147343374    0.007122825438419265     3.7242213994396377E-4    -0.004123442263628876    0.004123442263628876     -3.7242213994397277E-4   -0.007122825438419265    -0.0033718053147343374
0.023504951267502176      -0.0010122048961699504   5.395837105892598E-4     0.0010113429035628894    0.0036397129536794347    0.007688532538359255     4.0221069014391236E-4    -0.004451030274823719    0.004451030274823719     -4.022106901439217E-4    -0.007688532538359255    -0.0036397129536794347
0.023705136715686383      -0.001020824014503942    5.441799788180564E-4     0.0010199559238215153    0.003670715602732345     0.007754011660748132     4.0563572982404327E-4    -0.004488931787839816    0.004488931787839816     -4.0563572982405265E-4   -0.007754011660748132    -0.003670715602732345
0.023816583545796008      -0.0010256224322979228   5.467388037929948E-4     0.0010247509467075477    0.003687975333613328     0.007790465062805039     4.075425108553951E-4     -0.004510032240047091    0.004510032240047091     -4.075425108554045E-4    -0.007790465062805039    -0.003687975333613328
0.02540811346770393       -0.0010941112774219908   5.832838104793712E-4     0.0010931897720379896    0.003934387964746089     0.00831083307443407      4.34685101869899E-4      -0.004811130211557865    0.004811130211557865     -4.3468510186990853E-4   -0.00831083307443407     -0.003934387964746089
0.026493704522127577      -0.0011408871786425866   6.082296477319712E-4     0.001139957456488425     0.0041027444118644394    0.008666293126434804     4.5336652547264854E-4    -0.005016915240043       0.005016915240043        -4.5336652547265776E-4   -0.008666293126434804    -0.0041027444118644394
0.02681935428556175       -0.0011549109192661449   6.157133632272788E-4     0.0011539819852693987    0.004153246192227141     0.008772889869291738     4.5896601286350453E-4    -0.005078609689928087    0.005078609689928087     -4.5896601286351374E-4   -0.008772889869291738    -0.004153246192227141
0.027511279386651072      -0.0011847078951529922   6.31614405334626E-4      0.0011837806357955696    0.004260549968880171     0.008999381549492157     4.7086353687245174E-4    -0.0052096951174844235   0.0052096951174844235    -4.7086353687246073E-4   -0.008999381549492157    -0.004260549968880171
0.029489115813644516      -0.0012698104279426198   6.770034700274707E-4     0.0012688384731586546    0.004566743446831791     0.009645985158602289     5.047226266670028E-4     -0.005583964338437485    0.005583964338437485     -5.047226266670123E-4    -0.009645985158602289    -0.004566743446831791
0.03127886691797981       -0.0013469177629393978   7.18106352342168E-4      0.0013459480662317272    0.004844275796074617     0.010231946847832227     5.356376820216442E-4     -0.005923308733779239    0.005923308733779239     -5.356376820216525E-4    -0.010231946847832227    -0.004844275796074617
0.032439802928570946      -0.0013969100618556485   7.447579982763452E-4     0.0013958958195143553    0.005024037149175161     0.010611677396597772     5.554891595171236E-4     -0.00614312940693972     0.00614312940693972      -5.554891595171319E-4    -0.010611677396597772    -0.005024037149175161
0.033358380350326004      -0.0014364659000992346   7.658458101664074E-4     0.001435416411531698     0.005166271276427545     0.0109121348768245       5.71196415429135E-4      -0.006317060015826076    0.006317060015826076     -5.711964154291435E-4    -0.0109121348768245      -0.005166271276427545
0.03388053621034363       -0.001458953832565162    7.778374269287523E-4     0.0014578961324127947    0.00524718914530711      0.011083004475567777     5.801645837346317E-4     -0.006415979913995281    0.006415979913995281     -5.801645837346395E-4    -0.011083004475567777    -0.00524718914530711
0.03531420055914138       -0.0015206927180729701   8.107634634046432E-4     0.0015196415455995616    0.005469471136466234     0.01155224200875813      6.048903560384101E-4     -0.006687661228330293    0.006687661228330293     -6.048903560384176E-4    -0.01155224200875813     -0.005469471136466234
0.03680033068439573       -0.0015846887425146482   8.448952464455163E-4     0.0015836501922837773    0.00569990902344236      0.01203866399350097      6.305375447692983E-4     -0.006969292514827894    0.006969292514827894     -6.305375447693061E-4    -0.01203866399350097     -0.00569990902344236
0.040689405918010596      -0.00175216085648135     9.342151988828297E-4     0.001751155337577959     0.006302945233997624     0.01331158865992304      6.976540407006825E-4     -0.007706297466626084    0.007706297466626084     -6.976540407006905E-4    -0.01331158865992304     -0.006302945233997624
0.04394448887489123       -0.0018922592660315556   0.0010089566413465836    0.0018912824702584942    0.006807481273010618     0.014376518337136854     7.537414249311523E-4     -0.008322778489057377    0.008322778489057377     -7.537414249311599E-4    -0.014376518337136854    -0.006807481273010618
0.04648595832244894       -0.0020016758176220444   0.0010672990030984723    0.002000864826330752     0.007202004679374336     0.015208707949862529     7.982106607835389E-4     -0.008804913931271717    0.008804913931271717     -7.982106607835468E-4    -0.015208707949862529    -0.007202004679374336
0.04708773200672283       -0.00202759029194269     0.0010811139780271765    0.0020267892457835695    0.007295318333330428     0.015405679501101202     8.086344651674052E-4     -0.00891899563293817     0.00891899563293817      -8.086344651674135E-4    -0.015405679501101202    -0.007295318333330428
0.049058512750661046      -0.002112473563206845    0.0011264030465414684    0.0021116444820190134    0.007600839941286771     0.016050734194114163     8.424216620379949E-4     -0.009292315914865377    0.009292315914865377     -8.424216620380033E-4    -0.016050734194114163    -0.007600839941286771
0.05400844153943883       -0.0023256830805071446   0.0012401366479221731    0.002324814063284988     0.008368300035892187     0.017671032357920783     9.274801483591808E-4     -0.01023021247038776     0.01023021247038776      -9.274801483591895E-4    -0.017671032357920783    -0.008368300035892187
0.05959876436397442       -0.002566546812767602    0.0013685548229252682    0.0025659480738187495    0.009236363138515603     0.019502550389586027     0.001025034200964024     -0.011291221452034438    0.011291221452034438     -0.001025034200964033    -0.019502550389586027    -0.009236363138515603
0.06081708366311965       -0.002619039118254708    0.001396541460884817     0.0026184992820288003    0.009425543274260243     0.01990169974727909      0.001046294508951369     -0.01152245098197021     0.01152245098197021      -0.0010462945089513777   -0.01990169974727909     -0.009425543274260243
0.06364314595682811       -0.002740823277470392    0.001461525878419041     0.002740333168121734     0.009864263752803281     0.020827556862684865     0.0010951084822890646    -0.01205840159217064     0.01205840159217064      -0.0010951084822890737   -0.020827556862684865    -0.009864263752803281
0.06421543036872795       -0.0027654684875292605   0.0014746762854304554    0.002765001477746871     0.009953097792220335     0.021014971742337393     0.0011050400796376323    -0.012166914029754682    0.012166914029754682     -0.0011050400796376416   -0.021014971742337393    -0.009953097792220335
0.06456235133837174       -0.002780414093136092    0.0014826450671012205    0.0027799492980079077    0.010006904207063115     0.0211285605796075       0.001111033804455822     -0.012232690177000198    0.012232690177000198     -0.0011110338044558311   -0.0211285605796075      -0.010006904207063115
0.0709310805537437        -0.0030547835415075577   0.0016289349056475492    0.003054359402707975     0.01099467524475944      0.023213809410789703     0.0012210658108741776    -0.013440199976904413    0.013440199976904413     -0.001221065810874186    -0.023213809410789703    -0.01099467524475944
0.0763830824639904        -0.0032898802980284867   0.0017543149241706065    0.003289643514380256     0.011841758233975874     0.025001279426089835     0.0013158686889522694    -0.014475389881066225    0.014475389881066225     -0.0013158686889522774   -0.025001279426089835    -0.011841758233975874
0.07763294172759021       -0.0033437464877262586   0.0017830534039465       0.0033435875049760127    0.01203601725629104      0.02541100320719608      0.0013376968326120722    -0.014712682783517114    0.014712682783517114     -0.0013376968326120802   -0.02541100320719608     -0.01203601725629104
0.07807599138353985       -0.003362893601074474    0.0017932511879666388    0.003362710769377863     0.012104809439262426     0.02555638384356032      0.0013453023114626246    -0.014796876715760528    0.014796876715760528     -0.0013453023114626326   -0.02555638384356032     -0.012104809439262426
0.0802826227884611        -0.0034580654050140724   0.0018440092307890846    0.0034578550756178424    0.012447317184810479     0.026279578804866775     0.0013832618000760074    -0.015215523420132306    0.015215523420132306     -0.0013832618000760159   -0.026279578804866775    -0.012447317184810479
0.08570292037069759       -0.003691974768289961    0.0019687510745651734    0.0036917435808923736    0.013289278010685092     0.028057177083844947     0.0014767715632940848    -0.016244670636453934    0.016244670636453934     -0.0014767715632940934   -0.028057177083844947    -0.013289278010685092
0.08587592847167055       -0.003699442777243891    0.00197273248113432      0.0036992076611154527    0.013316142533376988     0.028113913642352564     0.0014797476465711       -0.01627751875554667     0.01627751875554667      -0.0014797476465711087   -0.028113913642352564    -0.013316142533376988
0.0868127924792275        -0.0037398831309481645   0.0019942923762670214    0.0037396267401712605    0.013461617827589777     0.028421150351382447     0.0014958635699876802    -0.01645539609378035     0.01645539609378035      -0.001495863569987689    -0.028421150351382447    -0.013461617827589777
0.09024816735378807       -0.0038881111189705345   0.002073333162049864     0.003887876344192715     0.013995282624979385     0.02954772710086153      0.00155528365268023      -0.01710772812856238     0.01710772812856238      -0.001555283652680239    -0.02954772710086153     -0.013995282624979385
0.09140902632757578       -0.003938227697143709    0.0021000552557302278    0.003938010225484825     0.014175751274842564     0.02992866206341741      0.001575419740461228     -0.017328330529036075    0.017328330529036075     -0.0015754197404612368   -0.02992866206341741     -0.014175751274842564
0.09359029239904555       -0.004032350116606908    0.00215027107268503      0.004032150533800233     0.01451471512004221      0.030644115586469848     0.001613088683932058     -0.0177424891503597      0.0177424891503597       -0.0016130886839320667   -0.030644115586469848    -0.01451471512004221
0.09674958765195807       -0.0041687450129375535   0.0022230152571913273    0.004168418706857432     0.015005230573128601     0.03168021062487883      0.0016671390299806666    -0.01834211908173089     0.01834211908173089      -0.0016671390299806746   -0.03168021062487883     -0.015005230573128601
0.09878645174594393       -0.004256683610749681    0.0022699326905127903    0.00425626837300363      0.015321504342053541     0.03234823878505226      0.0017019081989768214    -0.018728642641975546    0.018728642641975546     -0.0017019081989768292   -0.03234823878505226     -0.015321504342053541
0.09903455707342478       -0.004267395191690601    0.002275647585872355     0.004266969121400464     0.015360028859837727     0.03242960962660013      0.0017061433446036202    -0.018775724111366028    0.018775724111366028     -0.001706143344603628    -0.03242960962660013     -0.015360028859837727
0.10014783604096635       -0.004315513093259563    0.002301294146900402     0.0043150188781309155    0.015532931766705747     0.03279498413974401      0.0017251668853033608    -0.01898721925834161     0.01898721925834161      -0.0017251668853033681   -0.03279498413974401     -0.015532931766705747
0.10021371191911503       -0.004318360366147083    0.002302811726750983     0.004317862118694814     0.015543162922738041     0.03281660438732638      0.001726292562232172     -0.0189997340268205      0.0189997340268205       -0.0017262925622321791   -0.03281660438732638     -0.015543162922738041
0.1014776644273935        -0.004372996911082967    0.002331958409607815     0.004372465081605605     0.015739741733079935     0.03323172937741181      0.0017479912754330739    -0.01923997891976494     0.01923997891976494      -0.0017479912754330812   -0.03323172937741181     -0.015739741733079935
0.10427453645352619       -0.004493923782190652    0.0023964265691042335    0.004493173932045128     0.01617412787111191      0.03414982299987454      0.0017955684564865417    -0.019771263585249145    0.019771263585249145     -0.0017955684564865486   -0.03414982299987454     -0.01617412787111191
0.10474206127161174       -0.0045141379045702335   0.0024072030595046713    0.004513351610113969     0.01624673980982943      0.03430329142811038      0.0018035214528014292    -0.01986007307108236     0.01986007307108236      -0.0018035214528014359   -0.03430329142811038     -0.01624673980982943
0.106274794348785         -0.004580370574351296    0.0024425476202746097    0.004579425384459955     0.01648460324996106      0.034806085547366264     0.0018293175283134316    -0.020150799825718612    0.020150799825718612     -0.0018293175283134381   -0.034806085547366264    -0.01648460324996106
0.10813663152270349       -0.004660805890275131    0.0024854715624972423    0.004659680538576283     0.0167735250612466       0.035416748622347144     0.0018606956862631768    -0.020503919247363698    0.020503919247363698     -0.0018606956862631829   -0.035416748622347144    -0.0167735250612466
0.1093650364557415        -0.004713875589524586    0.002513791967262149     0.004712631370474614     0.016964150204635733     0.035819652562734096     0.0018813984010628755    -0.02073690075916122     0.02073690075916122      -0.0018813984010628817   -0.035819652562734096    -0.016964150204635733
0.11017925648444198       -0.0047490595448384035   0.002532555471068791     0.0047476947005898815    0.017090326125889094     0.036086564305242735     0.001894993299476383     -0.02089123147883        0.02089123147883         -0.0018949932994763888   -0.036086564305242735    -0.017090326125889094
0.11173436099499343       -0.004816361745636384    0.0025684584624897045    0.004814772697411649     0.017331742685842946     0.0365971896683885       0.0019209919109047509    -0.02118643889345029     0.02118643889345029      -0.0019209919109047567   -0.0365971896683885      -0.017331742685842946
0.11606084662974399       -0.005003604469815936    0.002668344853129825     0.005001391659473763     0.018003392257652656     0.038017810136916415     0.001993323138873742     -0.022007741018137492    0.022007741018137492     -0.001993323138873747    -0.038017810136916415    -0.018003392257652656
0.11839912201762735       -0.0051048842585897855   0.0027223394313846813    0.0051021432830626115    0.018365822909224925     0.03878535994358408      0.0020317863209168684    -0.02245132335527602     0.02245132335527602      -0.0020317863209168736   -0.03878535994358408     -0.018365822909224925
0.11891939433634247       -0.005127405498696548    0.002734350305899019     0.0051245265600575575    0.018446346160534196     0.0389559681553204       0.002040244325140113     -0.022549866319926316    0.022549866319926316     -0.002040244325140118    -0.0389559681553204      -0.018446346160534196
0.11942298608795471       -0.005149204680290247    0.0027459760970808544    0.005146192201805606     0.018524287737884497     0.0391211064590455       0.0020484311553994024    -0.0226452498765604      0.0226452498765604       -0.0020484311553994076   -0.0391211064590455      -0.018524287737884497
0.12057783121912045       -0.005199298671849021    0.002772716287824364     0.005195891834180626     0.018703118856497555     0.039500313543893655     0.002066821129551404     -0.022864015816947497    0.022864015816947497     -0.0020668211295514095   -0.039500313543893655    -0.018703118856497555
0.12499344235437602       -0.005390819078561536    0.002874891182342296     0.005386123083477875     0.019387527723815322     0.04095080403806147      0.002138180629761571     -0.02370145694400773     0.02370145694400773      -0.0021381806297615788   -0.04095080403806147     -0.019387527723815322
0.12762717917134336       -0.005504902615010585    0.002935706216910746     0.0054994063671657736    0.01979493888937417      0.041814549349416516     0.002180701587909713     -0.024200312047952068    0.024200312047952068     -0.002180701587909721    -0.041814549349416516    -0.01979493888937417
0.12987491631440318       -0.005602665494077801    0.002987784507612941     0.0055963014978273285    0.02014322852599254      0.04255389050230375      0.0022165214803149145    -0.02462718345662613     0.02462718345662613      -0.002216521480314923    -0.04255389050230375     -0.02014322852599254
0.13054657463837743       -0.005631807399498735    0.0030033490491593712    0.005625204690235833     0.020247251109423978     0.04277448070741893      0.0022271568144677733    -0.024754386412462727    0.024754386412462727     -0.0022271568144677815   -0.04277448070741893     -0.020247251109423978
0.13234823943634622       -0.005709978015820385    0.0030450995726022997    0.0057027349797485055    0.020526282605160158     0.043366194668441715     0.0022556851695463773    -0.025095597232827928    0.025095597232827928     -0.002255685169546386    -0.043366194668441715    -0.020526282605160158
0.1346815185990137        -0.0058113146107024545   0.0030991218969145425    0.005802727798331133     0.020885647662663254     0.044130906105473086     0.00229091628117602      -0.025536174723985852    0.025536174723985852     -0.0022909162811760296   -0.044130906105473086    -0.020885647662663254
0.13544150858276716       -0.005844460746358375    0.003116768417154939     0.00583548560425501      0.021003326175768115     0.044381169161201627     0.002302715672838498     -0.025680558658272012    0.025680558658272012     -0.0023027156728385074   -0.044381169161201627    -0.021003326175768115
0.1382851062607276        -0.005968179969754998    0.0031828067236276897    0.005957838987707323     0.021443416182202378     0.04531613606122238      0.0023465758404362567    -0.026219295719456255    0.026219295719456255     -0.002346575840436266    -0.04531613606122238     -0.021443416182202378
0.13949474056201303       -0.006020815045899662    0.0032108753597058005    0.006009936192102292     0.021630740755727258     0.04571400093932591      0.0023654885974924715    -0.026448748781091123    0.026448748781091123     -0.0023654885974924815   -0.04571400093932591     -0.021630740755727258
0.13994385559647338       -0.006040326540152001    0.003221283907082156     0.006029168699089595     0.021699873437300853     0.04586117959790887      0.002372169994807935     -0.026533476155415948    0.026533476155415948     -0.002372169994807945    -0.04586117959790887     -0.021699873437300853
0.14033798408041637       -0.006057454725360749    0.0032303976450552643    0.006046089913530244     0.02176064313856528      0.045990462040008284     0.00237825726823371      -0.02660807616967672     0.02660807616967672      -0.00237825726823372     -0.045990462040008284    -0.02176064313856528
0.1417358580266841        -0.006118204061746241    0.003262721766210541     0.006106105177002583     0.02197617788314948      0.04644899413013445      0.0023998472858862497    -0.026872663532871224    0.026872663532871224     -0.002399847285886259    -0.04644899413013445     -0.02197617788314948
0.14608182624062238       -0.006308028114037759    0.0033639448906266395    0.0062926003190583385    0.02264617972003775      0.04787829217618879      0.002462510376277934     -0.02769462283242899     0.02769462283242899      -0.0024625103762779426   -0.04787829217618879     -0.02264617972003775
0.14634021836266642       -0.006319314215838801    0.0033699631716241673    0.006303688498523652     0.022686015077289495     0.0479632719406447       0.002466236047544515     -0.02774349291089974     0.02774349291089974      -0.002466236047544524    -0.0479632719406447      -0.022686015077289495
0.14675184671528024       -0.006337282398093544    0.003379547403577616     0.00632132921227936      0.02274939426366319      0.04809852385603738      0.0024721098421975154    -0.027821239434571716    0.027821239434571716     -0.002472109842197524    -0.04809852385603738     -0.02274939426366319
0.14942878190039321       -0.006453835657857224    0.0034417556371104064    0.006435581472307027     0.023159921484844873     0.04897526411627377      0.0025093876621824526    -0.02832473029361137     0.02832473029361137      -0.0025093876621824613   -0.04897526411627377     -0.023159921484844873
0.1495867230053391        -0.006460731296576356    0.003445432145244922     0.006442312137204561     0.02318408239140029      0.049027007577705714     0.002511489519930774     -0.028354414706236224    0.028354414706236224     -0.0025114895199307833   -0.049027007577705714    -0.02318408239140029
0.15166375375919533       -0.006551413539758247    0.0034937806765839114    0.006530824864723262     0.023501814409128283     0.04970746856816127      0.002539130349624837     -0.02874478450865784     0.02874478450865784      -0.002539130349624846    -0.04970746856816127     -0.023501814409128283
0.15294841872662782       -0.006607657082054909    0.0035237966768905124    0.006585648526531972     0.0236986699726896       0.050129298300909245     0.0025558899113465555    -0.02898651823956621     0.02898651823956621      -0.0025558899113465646   -0.050129298300909245    -0.0236986699726896
0.15388253637164223       -0.006648553414257717    0.0035456221926708584    0.006625512421911771     0.02384180943714422      0.050436023094175095     0.0025680762811191       -0.029162289938149982    0.029162289938149982     -0.002568076281119109    -0.050436023094175095    -0.02384180943714422
0.15832182740146297       -0.0068430647033955825   0.003649266596372854     0.006815656815144761     0.024524297642906444     0.051896556456488774     0.002628698064669356     -0.030000956878251682    0.030000956878251682     -0.0026286980646693637   -0.051896556456488774    -0.024524297642906444
0.15982267614952553       -0.0069087540795126235   0.0036842816451284665    0.006879340507942469     0.02475269880813004      0.05238771512618055      0.0026470089373592737    -0.030282025255409767    0.030282025255409767     -0.002647008937359282    -0.05238771512618055     -0.02475269880813004
0.1625687025815718        -0.007029225444219385    0.0037485132010256416    0.006996679522342163     0.025173806804006812     0.053290708580884374     0.0026827275978529965    -0.030799629374730533    0.030799629374730533     -0.002682727597853005    -0.053290708580884374    -0.025173806804006812
0.1643261867081932        -0.0071057283838388205   0.0037893194621224685    0.007071236769811734     0.025441448697936703     0.053864362233292        0.0027055319252019252    -0.031128445460557208    0.031128445460557208     -0.0027055319252019335   -0.053864362233292       -0.025441448697936703
0.16432763335508882       -0.007105791773553023    0.0037893533333241943    0.007071298202858667     0.025441669264301206     0.053864836358513316     0.0027055492643560733    -0.031128716358568165    0.031128716358568165     -0.0027055492643560815   -0.053864836358513316    -0.025441669264301206
0.16511410094597057       -0.007140579752849046    0.0038079370967290757    0.00710457111854434      0.0255609362586665       0.054123255270062696     0.002713313678292073     -0.03127563268968826     0.03127563268968826      -0.002713313678292082    -0.054123255270062696    -0.0255609362586665
0.16560486607102312       -0.007162287865436876    0.0038195335859895155    0.007125333813430515     0.025635360280816862     0.05428451174256438      0.002718158764879794     -0.0313673102266273      0.0313673102266273       -0.0027181587648798023   -0.05428451174256438     -0.025635360280816862
0.16692369247389702       -0.007220320595167135    0.0038505130292323933    0.007181508886336896     0.0258369334427105       0.054718215823379046     0.0027338552673161634    -0.03161513764798471     0.03161513764798471      -0.0027338552673161712   -0.054718215823379046    -0.0258369334427105
0.16808459642397922       -0.0072714042139293165   0.0038777828487883514    0.007230957292807269     0.026014369289735512     0.05509998614545278      0.0027476721970054246    -0.031833289052722695    0.031833289052722695     -0.0027476721970054324   -0.05509998614545278     -0.026014369289735512