% Model:              Cylinder_slice_potential_3.mph
% Version:            COMSOL 6.2.0.339
% Date:               May 16 2024, 16:03
% Dimension:          1
% Nodes:              760
% Expressions:        11
% Description:        Line graph
% Arc length (m)          Magnetic scalar potential Magnetic scalar potential Magnetic scalar potential Magnetic scalar potential Magnetic scalar potential Magnetic scalar potential Magnetic scalar potential Magnetic scalar potential Magnetic scalar potential Magnetic scalar potential Magnetic scalar potential
0                         0.001922676489180872     -0.01459423303196629     -2.1801393185546442E-7   -0.03993821817326455     -0.047628924129987996    0.047627180018533215     -0.03993647406180968     0.03993647406180968      -0.047627180018533215    0.047628924129987996     0.03993821817326455
2.8905589405058105E-4     0.0019003740648846192    -0.014596653343421839    -1.010488124025429E-5    -0.040029631425457304    -0.04763112768499573     0.04755028863507376      -0.03994879237553523     0.03994879237553523      -0.04755028863507376     0.04763112768499573      0.040029631425457304
0.0017921234810465698     0.0017839875581971186    -0.014607708990722126    -6.115557311537599E-5    -0.04049977414823366     -0.04763572438102207     0.04714647979609913      -0.04001052956331061     0.04001052956331061      -0.04714647979609913     0.04763572438102207      0.04049977414823366
0.012990624113116179      9.381041655217583E-4     -0.014688776945587236    -4.436477299272225E-4    -0.04396471342542711     -0.04771713008751408     0.044167948248096355     -0.040415531586009294    0.040415531586009294     -0.044167948248096355    0.04771713008751408      0.04396471342542711
0.013097120141905665      9.299296878544126E-4     -0.01468945123621394     -4.472711934244324E-4    -0.043997579106630755    -0.04771729785804834     0.044139128310652934     -0.040419409559235266    0.040419409559235266     -0.044139128310652934    0.04771729785804834      0.043997579106630755
0.014264342866858721      8.414889738995995E-4     -0.01469693492154651     -4.873935268769787E-4    -0.044357400924348284    -0.04772335681994662     0.04382420860493084      -0.04045825270933241     0.04045825270933241      -0.04382420860493084     0.04772335681994662      0.044357400924348284
0.017333705695044162      6.085445639579229E-4     -0.01471740107168201     -5.931028008439532E-4    -0.04530752529050605     -0.047741703546337666    0.04299688113958609      -0.04056270288375438     0.04056270288375438      -0.04299688113958609     0.047741703546337666     0.04530752529050605
0.01759122451096414       5.897616982014112E-4     -0.014718995303473719    -6.021710687639271E-4    -0.04538614678907409     -0.04774519358187966     0.0429278250317683       -0.04056877823896263     0.04056877823896263      -0.0429278250317683      0.04774519358187966      0.04538614678907409
0.01935208874609115       4.5888983732330854E-4    -0.014728408877839255    -6.632646926609225E-4    -0.04592050572951488     -0.047756065078808044    0.04244994753752072      -0.040614388188227456    0.040614388188227456     -0.04244994753752072     0.047756065078808044     0.04592050572951488
0.026555946790784955      -7.651901987502525E-5    -0.01476692067907281     -9.132043445717494E-4    -0.048106617455255504    -0.047800541375755345    0.0404949066191814       -0.04080098269868146     0.04080098269868146      -0.0404949066191814      0.047800541375755345     0.048106617455255504
0.029039610305878354      -2.627064610815056E-4    -0.014779000325950496    -9.995495336867334E-4    -0.04886061203476146     -0.04780978619043537     0.03981338992094157      -0.04086421576526754     0.04086421576526754      -0.03981338992094157     0.04780978619043537      0.04886061203476146
0.03892149972950101       -9.895376138614178E-4    -0.014813985826806868    -0.0013455404553952169   -0.051803194529724324    -0.047845044074278587    0.03708072043111692      -0.04103887088656254     0.04103887088656254      -0.03708072043111692     0.047845044074278587     0.051803194529724324
0.03906956067599072       -0.0010004277689527647   -0.014814510016680701    -0.001350724458286662    -0.05184728342109429     -0.04784557234528318     0.03703977667898995      -0.04104148775480095     0.04104148775480095      -0.03703977667898995     0.04784557234528318      0.05184728342109429
0.039108591162554475      -0.0010033251189685624   -0.014814628044805777    -0.001352092660189593    -0.051858905013112834    -0.04784560453723853     0.037028863255721856     -0.04104216373159605     0.04104216373159605      -0.037028863255721856    0.04784560453723853      0.051858905013112834
0.03926486973570725       -0.0010145417488895345   -0.014815341722800916    -0.0013576620554217526   -0.05190575688786884     -0.047847589892310645    0.03698629344893668      -0.04104446044449477     0.04104446044449477      -0.03698629344893668     0.047847589892310645     0.05190575688786884
0.041599951165698174      -0.0011821474613064144   -0.01482658688109201     -0.0014402366956729044   -0.05260500234858048     -0.04787641250335477     0.0363545189379716       -0.041083108783197195    0.041083108783197195     -0.0363545189379716      0.04787641250335477      0.05260500234858048
0.042554950792971974      -0.0012514299564093227   -0.014828550651420722    -0.001473743719864005    -0.05288348674653685     -0.0478777669208995      0.036087817161987515     -0.04109353698762475     0.04109353698762475      -0.036087817161987515    0.0478777669208995       0.05288348674653685
0.05026785026599348       -0.0018109787820924043   -0.01484441072371908     -0.0017443577618441119   -0.0551326207827185      -0.04788870565434884     0.033933843559596014     -0.04117775868796557     0.04117775868796557      -0.033933843559596014    0.04788870565434884      0.0551326207827185
0.053015838522380246      -0.0020035782783066522   -0.01485430076251177     -0.001842375254328785    -0.05593955986146377     -0.047925246748237116    0.033186244713606886     -0.04120055782683344     0.04120055782683344      -0.033186244713606886    0.047925246748237116     0.05593955986146377
0.0536179849792308        -0.0020476544789100196   -0.014856339836483962    -0.0018642205715422178   -0.05612121075344081     -0.047930592837800684    0.033016828265463        -0.041207446181103016    0.041207446181103016     -0.033016828265463       0.047930592837800684     0.05612121075344081
0.05416029202551798       -0.0020843138852901185   -0.014857882151812534    -0.0018832177279322262   -0.05627514513774676     -0.04793788959658624     0.03287214777312848      -0.041209403314288906    0.041209403314288906     -0.03287214777312848     0.04793788959658624      0.05627514513774676
0.058483036928224506      -0.002388980177372127    -0.014854512095935118    -0.0020381928388700054   -0.05749426799802965     -0.047938347288541086    0.03163280457758111      -0.041188725287069565    0.041188725287069565     -0.03163280457758111     0.047938347288541086     0.05749426799802965
0.06069802281082291       -0.002546485961474541    -0.014854977265175977    -0.002116799118358039    -0.05812510019190918     -0.047939156346010973    0.031004763399146727     -0.041190707245044846    0.041190707245044846     -0.031004763399146727    0.047939156346010973     0.05812510019190918
0.06122122646570334       -0.002582970767219948    -0.014855706841187779    -0.0021356219190461494   -0.05827554973418784     -0.047943666665308006    0.030858691312938877     -0.041190574381818626    0.041190574381818626     -0.030858691312938877    0.047943666665308006     0.05827554973418784
0.06729627192690146       -0.003006604760367378    -0.014864178126504207    -0.0023541780564520984   -0.06002245612605577     -0.047996037084586225    0.029162612632969504     -0.04118903167443896     0.04118903167443896      -0.029162612632969504    0.047996037084586225     0.06002245612605577
0.06751300776940784       -0.003021706205879576    -0.014864644662205377    -0.002361960446249173    -0.06008518818337198     -0.04799836335985363     0.029102679789860336     -0.041189504613378586    0.041189504613378586     -0.029102679789860336    0.04799836335985363      0.06008518818337198
0.06757933350451964       -0.0030263125358358208   -0.014864601687481858    -0.0023643409164644485   -0.06010379379997501     -0.047998543656631684    0.029083816324916186     -0.04118906646825941     0.04118906646825941      -0.029083816324916186    0.047998543656631684     0.06010379379997501
0.07156384542786019       -0.003303037348648903    -0.01486201998525145     -0.0025073474272846777   -0.06122152436219087     -0.048009374967595206    0.027950595549317867     -0.04116274494391343     0.04116274494391343      -0.027950595549317867    0.048009374967595206     0.06122152436219087
0.07928564132076286       -0.0038337927874622464   -0.014861950891541485    -0.0027889538634206235   -0.06340925370323144     -0.04807408255338241     0.025762451646017495     -0.041097622795866436    0.041097622795866436     -0.025762451646017495    0.04807408255338241      0.06340925370323144
0.08128152862306261       -0.003971287033413844    -0.01486138041842004     -0.0028616326172261827   -0.06397324579099255     -0.04808809765733712     0.025195036719527726     -0.04108018485318305     0.04108018485318305      -0.025195036719527726    0.04808809765733712      0.06397324579099255
0.08187027238459643       -0.004011283439022224    -0.014860107420381395    -0.0028831958141644696   -0.06413567239584651     -0.04809053863975757     0.02502497212644188      -0.04107010588253074     0.04107010588253074      -0.02502497212644188     0.04809053863975757      0.06413567239584651
0.08886111162678008       -0.004482908580481372    -0.014846760507535056    -0.0031371813668951525   -0.06605482415114852     -0.048123189829222986    0.023025738894061835     -0.04095737321598728     0.04095737321598728      -0.023025738894061835    0.048123189829222986     0.06605482415114852
0.0899153643854267        -0.004554320428233956    -0.014846423668466774    -0.0031760911391536936   -0.06635227641848301     -0.04813499470554714     0.022726265592317663     -0.040943547305253444    0.040943547305253444     -0.022726265592317663    0.04813499470554714      0.06635227641848301
0.09137875831909151       -0.004653446244064956    -0.014845956106731603    -0.003230101265488602    -0.06676516587027913     -0.048151380894019255    0.022310570770110512     -0.040924355746370294    0.040924355746370294     -0.022310570770110512    0.048151380894019255     0.06676516587027913
0.09572482651557442       -0.004938045300472125    -0.014836418518061816    -0.0033910737072960716   -0.06794964098431397     -0.048197459782425456    0.021068870124056935     -0.04082105132594539     0.04082105132594539      -0.021068870124056935    0.048197459782425456     0.06794964098431397
0.0985533350413754        -0.005123268086008259    -0.01483021126367729     -0.003495837807509659    -0.068720521193087       -0.048227448849053944    0.020260746388976732     -0.04075381873300973     0.04075381873300973      -0.020260746388976732    0.048227448849053944     0.068720521193087
0.09948752519762623       -0.005185204303649512    -0.01482746489335874     -0.0035304082825616014   -0.06897443641762163     -0.04823361920302356     0.019990352942530806     -0.04073117015712883     0.04073117015712883      -0.019990352942530806    0.04823361920302356      0.06897443641762163
0.10148641231761893       -0.005317419599192981    -0.01482423005555913     -0.003603950696249003    -0.06952333215005935     -0.04825365375328739     0.019422048183295425     -0.04069172658006732     0.04069172658006732      -0.019422048183295425    0.04825365375328739      0.06952333215005935
0.1026284285116259        -0.005392844636612819    -0.014822077884957348    -0.003645672141016753    -0.06983461149216467     -0.04826323294571338     0.019097855817579407     -0.040669234364030644    0.040669234364030644     -0.019097855817579407    0.04826323294571338      0.06983461149216467
0.10681454609318791       -0.005668193676957599    -0.014815200547623452    -0.003802411437093033    -0.0709916347451577      -0.04831886003732726     0.017899568540583038     -0.040572343248413405    0.040572343248413405     -0.017899568540583038    0.04831886003732726      0.0709916347451577
0.1074530474326937        -0.005710183548652673    -0.014813915010544035    -0.003826192505637739    -0.07116688215148842     -0.048326147956877674    0.01771660791177581      -0.04055734210638647     0.04055734210638647      -0.01771660791177581     0.048326147956877674     0.07116688215148842
0.11064847791845756       -0.0059150645778874794   -0.01480019941986669     -0.003944488460051588    -0.07200868125558138     -0.04834842294403142     0.016792515263618774     -0.04045277357516867     0.04045277357516867      -0.016792515263618774    0.04834842294403142      0.07200868125558138
0.11092603670350337       -0.0059328607808738065   -0.014799008067808945    -0.003954763783370066    -0.07208180089865472     -0.04835035777515945     0.016712247508198982     -0.040443690631694174    0.040443690631694174     -0.016712247508198982    0.04835035777515945      0.07208180089865472
0.11203201358412633       -0.006003450040430217    -0.014794812092522439    -0.003996733714443896    -0.07237827121620334     -0.048364471054482425    0.016390601338931315     -0.04040440150065215     0.04040440150065215      -0.016390601338931315    0.048364471054482425     0.07237827121620334
0.11345252569576679       -0.006094847846617634    -0.014792549770489426    -0.004049734075921883    -0.07276628130839108     -0.0483868899219205      0.015989017314545495     -0.040368408701016004    0.040368408701016004     -0.015989017314545495    0.0483868899219205       0.07276628130839108
0.11461951850648558       -0.00616836515566639     -0.014788394475729463    -0.0040932725248732735   -0.07307500383801427     -0.04840154321534866     0.015655363016362535     -0.04032882363902806     0.04032882363902806      -0.015655363016362535    0.04840154321534866      0.07307500383801427
0.11541627146501013       -0.006218558381322408    -0.014785557488763364    -0.0041229979762153635   -0.07328578113379636     -0.04841154760850669     0.015427563798783846     -0.040301797324073435    0.040301797324073435     -0.015427563798783846    0.04841154760850669      0.07328578113379636
0.11712403215075065       -0.006327932226540619    -0.01477949897919825     -0.004186855168400397    -0.07374178206427759     -0.048430053158115056    0.01493521181091195      -0.040246940717074395    0.040246940717074395     -0.01493521181091195     0.048430053158115056     0.07374178206427759
0.11987187154979986       -0.006500783345955196    -0.014771173023921204    -0.004290145192283625    -0.07447566653280853     -0.04847253314898768     0.014151371610718742     -0.0401545049945395      0.0401545049945395       -0.014151371610718742    0.04847253314898768      0.07447566653280853
0.12182790700464406       -0.006624323897117083    -0.01476281125153349     -0.004363792768384855    -0.07499225262237408     -0.04849495703390569     0.013584614886826905     -0.04008191047529521     0.04008191047529521      -0.013584614886826905    0.04849495703390569      0.07499225262237408
0.12292987149706497       -0.00669435857011711     -0.01475848717725514     -0.004405522751735806    -0.07528626967894289     -0.048508835398474386    0.013264653384587996     -0.0400420876650564      0.0400420876650564       -0.013264653384587996    0.048508835398474386     0.07528626967894289
0.12579668858229454       -0.006876557360092507    -0.014747237876479812    -0.004514085441422869    -0.07605117011531595     -0.04854494067494585     0.012432257143562966     -0.03993848658393297     0.03993848658393297      -0.012432257143562966    0.04854494067494585      0.07605117011531595
0.12770849955319327       -0.006994642909684242    -0.014740250554064145    -0.004586509499134392    -0.07655607547809852     -0.048577503839361484    0.011885427846286411     -0.03986399948502335     0.03986399948502335      -0.011885427846286411    0.048577503839361484     0.07655607547809852
0.13296321778262074       -0.007319378059266111    -0.014720596024495863    -0.004785681928831558    -0.0779432719073461      -0.04866575967028158     0.010380304239629167     -0.039657816476693586    0.039657816476693586     -0.010380304239629167    0.04866575967028158      0.0779432719073461
0.1347110714346327        -0.007428084963297735    -0.01471467172708385     -0.0048523115214040066   -0.07840943119346311     -0.0486970913402721      0.009878599169040094     -0.039590939022231014    0.039590939022231014     -0.009878599169040094    0.0486970913402721       0.07840943119346311
0.1364402619396083        -0.0075355947149146375   -0.014706167660378345    -0.004918594660493305    -0.07886407105293758     -0.04872169219327896     0.009372934909332577     -0.03951531376899112     0.03951531376899112      -0.009372934909332577    0.04872169219327896      0.07886407105293758
0.13762295322947632       -0.0076088056067269766   -0.014702022048129915    -0.004963643050542168    -0.0791782495600124      -0.04874302713310444     0.009033882728767154     -0.03946910515567504     0.03946910515567504      -0.009033882728767154    0.04874302713310444      0.0791782495600124
0.13886915839641378       -0.0076848172029321616   -0.014697577789845113    -0.005010442773376718    -0.07950413886890657     -0.04876487005717786     0.00868132787016418      -0.03942059668189281     0.03942059668189281      -0.00868132787016418     0.04876487005717786      0.07950413886890657
0.13917622221539222       -0.007703546391059963    -0.014696482728648402    -0.005021974182491338    -0.07958443769803052     -0.048770252133790604    0.008594458673859962     -0.039408644238099796    0.039408644238099796     -0.008594458673859962    0.048770252133790604     0.07958443769803052
0.1419160139397397        -0.00787201695579456     -0.014686036275298936    -0.005125683018126936    -0.0803048748099937      -0.04881680698681541     0.007811342841799971     -0.03929941066497819     0.03929941066497819      -0.007811342841799971    0.04881680698681541      0.0803048748099937
0.14317107365374318       -0.007948294307424754    -0.01468001210110359     -0.005174694288502103    -0.08063540207216871     -0.04884222484246964     0.007444670534452881     -0.03923784776415188     0.03923784776415188      -0.007444670534452881    0.04884222484246964      0.08063540207216871
0.1436655601129037        -0.007978347154393639    -0.014677638610397144    -0.0051940044530117      -0.08076562795202555     -0.048852239334450924    0.007300203710357382     -0.03921359232793192     0.03921359232793192      -0.007300203710357382    0.048852239334450924     0.08076562795202555
0.14630695441799557       -0.008136386324997394    -0.014668536168809723    -0.005294825232760642    -0.08145768208746657     -0.04891213678747691     0.006553534925391839     -0.0390990802253814      0.0390990802253814       -0.006553534925391839    0.04891213678747691      0.08145768208746657
0.14811400938698704       -0.008246121338337218    -0.014658443408012596    -0.00536378608158785     -0.08192271722706365     -0.04893823187371471     0.006027943221011971     -0.039012428574360825    0.039012428574360825     -0.006027943221011971    0.04893823187371471      0.08192271722706365
0.1552315415678516        -0.008665532504629593    -0.014630828949113548    -0.005637219204704555    -0.08377242867541809     -0.04911029865689963     0.004012545019263264     -0.038674675037781624    0.038674675037781624     -0.004012545019263264    0.04911029865689963      0.08377242867541809
0.1571420305303568        -0.008779376161137241    -0.01462214696131922     -0.005711109181354025    -0.08426962993164827     -0.04915212528709923     0.0034632518362671017    -0.03858075648081605     0.03858075648081605      -0.0034632518362671017   0.04915212528709923      0.08426962993164827
0.1586043720072266        -0.008866515267437735    -0.014615501525986958    -0.005767666628007774    -0.08465020162486749     -0.04918414055511647     0.0030428075310543357    -0.03850886860080526     0.03850886860080526      -0.0030428075310543357   0.04918414055511647      0.08465020162486749
0.16285919794860787       -0.009116270421995894    -0.014593360128212987    -0.005931990136996393    -0.0857405817766164      -0.049275500088632705    0.001819578992661614     -0.03828466068064518     0.03828466068064518      -0.001819578992661614    0.049275500088632705     0.0857405817766164
0.16557978326355277       -0.009275688011425668    -0.014582640350264882    -0.006037153883216851    -0.08644791260651347     -0.04934516056081067     0.0010479294950759214    -0.038150681540778594    0.038150681540778594     -0.0010479294950759214   0.04934516056081067      0.08644791260651347
0.16646352848993806       -0.00932763760323867     -0.014578626045221898    -0.00607135906968052     -0.08667658962086519     -0.049366039207910384    7.951666504662837E-4     -0.03810571706342097     0.03810571706342097      -7.951666504662837E-4    0.049366039207910384     0.08667658962086519
0.17132538718812862       -0.00960711111489515     -0.014560524152150641    -0.00625805822681999     -0.08792802759352225     -0.04949958313394154     -5.648826806183199E-4    -0.03786356177896227     0.03786356177896227      5.648826806183199E-4     0.04949958313394154      0.08792802759352225
0.17414892205114071       -0.009769415955993094    -0.014550011438938259    -0.006366484162619905    -0.08865480287928064     -0.049577139055308174    -0.0013547342456510128   -0.03772292957832135     0.03772292957832135      0.0013547342456510128    0.049577139055308174     0.08865480287928064
0.1745887896341139        -0.009794518571032435    -0.014548806047633416    -0.006383598174658327    -0.08876984798359847     -0.04959177369946864     -0.0014770116977979152   -0.03770106258633182     0.03770106258633182      0.0014770116977979152    0.04959177369946864      0.08876984798359847
0.1749994158720325        -0.009817731632276316    -0.014546632463169144    -0.006399454532776036    -0.08887317878516425     -0.0496022522560589      -0.0015933840061493245   -0.03767754252295592     0.03767754252295592      0.0015933840061493245    0.0496022522560589       0.08887317878516425
0.17672822366578284       -0.009916656624459454    -0.014537342875201763    -0.006466622154731589    -0.0893118304934506      -0.049645203995612695    -0.0020877732422399493   -0.03757885325559786     0.03757885325559786      0.0020877732422399493    0.049645203995612695     0.0893118304934506
0.1809628692491985        -0.010158969438383661    -0.014514588400817725    -0.006631146559752683    -0.09038629031823128     -0.04975041256469655     -0.003298759913324841    -0.03733711784020979     0.03733711784020979      0.003298759913324841     0.04975041256469655      0.09038629031823128
0.18333792957789974       -0.010292157959859029    -0.01450461975150854     -0.006723464222350447    -0.09099203206364552     -0.04982340022420931     -0.003964313554594198    -0.03720431828484191     0.03720431828484191      0.003964313554594198     0.04982340022420931      0.09099203206364552
0.18460125712895736       -0.010362502555929225    -0.014498140481226635    -0.006772163735676363    -0.09130808149824382     -0.049858071274526856    -0.004319238610883975    -0.037130771612832916    0.037130771612832916     0.004319238610883975     0.049858071274526856     0.09130808149824382
0.18477271901835626       -0.010372049895683754    -0.014497261098897376    -0.006778773352129895    -0.09135097649657925     -0.04986277691384416     -0.0043674099031949295   -0.03712078967954008     0.03712078967954008      0.0043674099031949295    0.04986277691384416      0.09135097649657925
0.18549556102641118       -0.010413732880142102    -0.014494487838715087    -0.00680668165378657     -0.09153765589157578     -0.04988272437100729     -0.004570728859285198    -0.037084202661283205    0.037084202661283205     0.004570728859285198     0.04988272437100729      0.09153765589157578
0.18817192867202912       -0.010562428850169106    -0.014484743117480155    -0.006910565215927178    -0.09222134791648742     -0.049971632515810924    -0.005312889211606428    -0.03693682618906999     0.03693682618906999      0.005312889211606428     0.049971632515810924     0.09222134791648742
0.1908719836933311        -0.010714600212851026    -0.014474031106464795    -0.007015028143722229    -0.0929114063199854      -0.050053005468581206    -0.00606721968119656     -0.036791181170207535    0.036791181170207535     0.00606721968119656      0.050053005468581206     0.0929114063199854
0.19173416074335548       -0.01076365745870875     -0.01446922042682815     -0.007048177935693111    -0.09312768794067444     -0.05007305810583935     -0.006312365379705461    -0.03674226445512953     0.03674226445512953      0.006312365379705461     0.05007305810583935      0.09312768794067444
0.19211498073300798       -0.010784884504187204    -0.014467403264124651    -0.00706276999317049     -0.09322305877343037     -0.05008352075668146     -0.006418639188682389    -0.036720898828066416    0.036720898828066416     0.006418639188682389     0.05008352075668146      0.09322305877343037
0.19317993295446007       -0.010842001963688647    -0.014462529905357738    -0.007103795645913898    -0.09348677622710613     -0.05011876837235148     -0.0067115967949596496   -0.03665641105979493     0.03665641105979493      0.0067115967949596496    0.05011876837235148      0.09348677622710613
0.19503299072972224       -0.010943013552022767    -0.01445402159099123     -0.0071751257558799585   -0.09394859490053908     -0.05017654069244794     -0.007224465354591645    -0.03654758885349941     0.03654758885349941      0.007224465354591645     0.05017654069244794      0.09394859490053908
0.19609296870211493       -0.011000992764808834    -0.014449672439697147    -0.007215674789568093    -0.09421370200698151     -0.050209730947746105    -0.007515667368798562    -0.036488303690436756    0.036488303690436756     0.007515667368798562     0.050209730947746105     0.09421370200698151
0.20111083636691368       -0.011279325421184008    -0.014431171152803004    -0.007409415492630304    -0.09548982627129829     -0.05037252458656216     -0.008902799354480191    -0.03621450233025584     0.03621450233025584      0.008902799354480191     0.05037252458656216      0.09548982627129829
0.20158714689056378       -0.011305699451463144    -0.014429445942418745    -0.007427820847382624    -0.09561102011971306     -0.050388222313860385    -0.009034344465200524    -0.03618845334065206     0.03618845334065206      0.009034344465200524     0.050388222313860385     0.09561102011971306
0.20506072886463528       -0.01149262721472826     -0.014416120665561223    -0.007560917468423981    -0.09647728629983615     -0.05050677744092304     -0.009980562306468743    -0.03598994655244429     0.03598994655244429      0.009980562306468743     0.05050677744092304      0.09647728629983615
0.20560226309287755       -0.011521769403619276    -0.014414043244163652    -0.00758166733887336     -0.096612337895223       -0.050525260280745804    -0.010128078430241001    -0.03595899918423609     0.03595899918423609      0.010128078430241001     0.050525260280745804     0.096612337895223
0.20704242756632393       -0.01160040004043815     -0.014409087143839299    -0.007637270460653376    -0.09697714335500776     -0.050575543193255065    -0.010522620491971875    -0.03587897966978071     0.03587897966978071      0.010522620491971875     0.050575543193255065     0.09697714335500776
0.2148788259859107        -0.012024133778340947    -0.014388017478207678    -0.007937633133508       -0.09896285252533694     -0.050866317411973096    -0.012634747656090833    -0.035461787457272936    0.035461787457272936     0.012634747656090833     0.050866317411973096     0.09896285252533694
0.21688931872976833       -0.012132958214223118    -0.014382420613906946    -0.008014363479579139    -0.09947063218848363     -0.050938799331591116    -0.013176108505041927    -0.03535572435185051     0.03535572435185051      0.013176108505041927     0.050938799331591116     0.09947063218848363
0.2185073190406881        -0.012219769183633277    -0.014376277085252815    -0.008075809558340233    -0.09987160785638594     -0.05099253112185278     -0.01361394534486901     -0.03526513138966407     0.03526513138966407      0.01361394534486901      0.05099253112185278      0.09987160785638594
0.22102459991651582       -0.012353142159657316    -0.014369022963143168    -0.008171460252800862    -0.10049919421994762     -0.05108662558131827     -0.014285056441088552    -0.035127512197540685    0.035127512197540685     0.014285056441088552     0.05108662558131827      0.10049919421994762
0.2218210394269205        -0.012395457315856681    -0.01436660664945698     -0.008201828472951922    -0.10069804847189202     -0.051116219208465215    -0.01449840857515008     -0.035083420688276606    0.035083420688276606     0.01449840857515008      0.051116219208465215     0.10069804847189202
0.2245259482912949        -0.012539170227641887    -0.01435840024052888     -0.008304966585525134    -0.10137340751897099     -0.05121672660840336     -0.015223006075797645    -0.034933674834769876    0.034933674834769876     0.015223006075797645     0.05121672660840336      0.10137340751897099
0.224984758898155         -0.012563953306231005    -0.014357139954028583    -0.008322310473226367    -0.10148856836745326     -0.05123275514252917     -0.0153457286432817      -0.03491008458164229     0.03491008458164229      0.0153457286432817       0.05123275514252917      0.10148856836745326