% Model:              Cylinder_slice_potential_2.mph
% Version:            COMSOL 6.2.0.415
% Date:               Nov 25 2024, 18:43
% Dimension:          1
% Nodes:              1533
% Expressions:        11
% Description:        Line graph
% Arc length (m)          Magnetic scalar potential Magnetic scalar potential Magnetic scalar potential Magnetic scalar potential Magnetic scalar potential Magnetic scalar potential Magnetic scalar potential Magnetic scalar potential Magnetic scalar potential Magnetic scalar potential Magnetic scalar potential
0                         7.821578362386734E-5     2.5637309243874286E-4    -0.0018975815268141613   -0.006664775262692677    -0.006977638397188144    -0.008203013817325152    0.008515876951820602     -0.008515876951820602    0.008203013817325152     0.006977638397188144     0.006664775262692677
0.016097912067439157      8.016222092774486E-5     2.6249066834151645E-4    -0.0019282820943361749   -0.006765331930464654    -0.00708598081417563     -0.00834027594051377     0.008660924824224734     -0.008660924824224734    0.00834027594051377      0.00708598081417563      0.006765331930464654
0.02317882440147101       8.102113650830043E-5     2.65326435426166E-4      -0.0019420358970616213   -0.006810122008951384    -0.007134206554984581    -0.008402080621508396    0.008726165167541582     -0.008726165167541582    0.008402080621508396     0.007134206554984581     0.006810122008951384
0.023790845027680918      8.109537468929676E-5     2.655715377329113E-4     -0.0019432246719764499   -0.006813993325328468    -0.0071383748240856516   -0.00840742255172595     0.008731804050483124     -0.008731804050483124    0.00840742255172595      0.0071383748240856516    0.006813993325328468
0.024755312954541253      8.12271883028941E-5      2.6594708133959955E-4    -0.001945125003629056    -0.0068202043938916344   -0.007145113147103208    -0.008415886881929248    0.008740795635140809     -0.008740795635140809    0.008415886881929248     0.007145113147103208     0.0068202043938916344
0.0261658963619531        8.142043797646056E-5     2.664870798124098E-4     -0.0019478943370473574   -0.006829275232799277    -0.007154956984705115    -0.00842819771167375     0.008753879463579577     -0.008753879463579577    0.00842819771167375      0.007154956984705115     0.006829275232799277
0.027985522364899262      8.167164322802106E-5     2.672299267443839E-4     -0.0019514804368551833   -0.006840888680731539    -0.007167575253643618    -0.008444268241197856    0.008770954814109925     -0.008770954814109925    0.008444268241197856     0.007167575253643618     0.006840888680731539
0.033246506895047157      8.232484250330072E-5     2.693352841848705E-4     -0.0019618181076060033   -0.006874616892862798    -0.007203916262875997    -0.008490628597972037    0.008819927967985225     -0.008819927967985225    0.008490628597972037     0.007203916262875997     0.006874616892862798
0.03802577622016212       8.290322020786155E-5     2.7129333795116513E-4    -0.0019713861226301425   -0.006905858036251348    -0.007237470917082793    -0.008533618063958354    0.008865230944789786     -0.008865230944789786    0.008533618063958354     0.007237470917082793     0.006905858036251348
0.040564337025597696      8.325427854963925E-5     2.723104635073757E-4     -0.0019764426346824474   -0.00692233059110838     -0.007255347705306935    -0.00855619337215265     0.008889210486351194     -0.008889210486351194    0.00855619337215265      0.007255347705306935     0.00692233059110838
0.041144483837172174      8.333118545710005E-5     2.7253890054361967E-4    -0.00197759839924201     -0.006926114524422974    -0.007259439266251372    -0.008561347927684709    0.008894672669513094     -0.008894672669513094    0.008561347927684709     0.007259439266251372     0.006926114524422974
0.04744766199259676       8.416206307002271E-5     2.751477268044169E-4     -0.0019902967171982243   -0.006967419562239596    -0.007304067814519685    -0.008618305923066113    0.00895495417534619      -0.00895495417534619     0.008618305923066113     0.007304067814519685     0.006967419562239596
0.04869519408498513       8.432651129937763E-5     2.7566406862493316E-4    -0.0019928099825350285   -0.006975594701666555    -0.007312900746864064    -0.00862957911341617     0.008966885158613666     -0.008966885158613666    0.00862957911341617      0.007312900746864064     0.006975594701666555
0.04888433785604551       8.4350602641542E-5       2.7574098010205053E-4    -0.001993197691120987    -0.006976866618894709    -0.007314269029460875    -0.008631312499507028    0.008968714910073183     -0.008968714910073183    0.008631312499507028     0.007314269029460875     0.006976866618894709
0.051679153810255674      8.467940556497274E-5     2.7687907494621027E-4    -0.0019989091206061983   -0.006995640446456213    -0.007334358068716101    -0.00865691489613349     0.008995632518393366     -0.008995632518393366    0.00865691489613349      0.007334358068716101     0.006995640446456213
0.0556954285634057        8.526573774323399E-5     2.785621751903156E-4     -0.0020069609153163465   -0.0070216256602079665   -0.007362688611180902    -0.008692998711349879    0.009034061662322799     -0.009034061662322799    0.008692998711349879     0.007362688611180902     0.0070216256602079665
0.057949513384050855      8.551410765588922E-5     2.7953322925760595E-4    -0.0020116779992016168   -0.007037084093721868    -0.007379140524345422    -0.00871428346926752     0.009056339899891061     -0.009056339899891061    0.00871428346926752      0.007379140524345422     0.007037084093721868
0.05881529737985791       8.561497413293192E-5     2.798792508770211E-4     -0.0020134174359359566   -0.007042802042846897    -0.007385261939378622    -0.00872207754810904     0.009064537444640752     -0.009064537444640752    0.00872207754810904      0.007385261939378622     0.007042802042846897
0.05936024644868154       8.567846236210474E-5     2.800970467247226E-4     -0.0020145122868840534   -0.007046401082637833    -0.00738911493208625     -0.008726983362986187    0.009069697212434589     -0.009069697212434589    0.008726983362986187     0.00738911493208625      0.007046401082637833
0.06007352318362713       8.578961444441138E-5     2.804059082649219E-4     -0.002016027922634883    -0.007051314736855942    -0.007394473194633586    -0.008733750186445491    0.009076908644223121     -0.009076908644223121    0.008733750186445491     0.007394473194633586     0.007051314736855942
0.06078643667714534       8.590070992170194E-5     2.807146125151084E-4     -0.0020175427865370514   -0.007056225888759473    -0.007399828728446278    -0.008740513563850142    0.009084116403536933     -0.009084116403536933    0.008740513563850142     0.007399828728446278     0.007056225888759473
0.062174891851270786      8.611590787388121E-5     2.813139250023279E-4     -0.0020204134613353592   -0.0070654802545866875   -0.007409943886082211    -0.008753363804600674    0.009097827436096181     -0.009097827436096181    0.008753363804600674     0.007409943886082211     0.0070654802545866875
0.06388907706618197       8.629853770175409E-5     2.820212887003575E-4     -0.0020238684243048884   -0.00707681275571497     -0.007422006906521984    -0.008768940487917133    0.009114134638724132     -0.009114134638724132    0.008768940487917133     0.007422006906521984     0.00707681275571497
0.06643974267183239       8.667060406291358E-5     2.8315890617604467E-4    -0.0020293046993864346   -0.007094400870891776    -0.007441083287143427    -0.008793354307948063    0.009140036724199701     -0.009140036724199701    0.008793354307948063     0.007441083287143427     0.007094400870891776
0.06695809079037951       8.674621565929629E-5     2.8339009362642726E-4    -0.002030409463160323    -0.007097975140443415    -0.007444960003080597    -0.008798315702201997    0.009145300564839165     -0.009145300564839165    0.008798315702201997     0.007444960003080597     0.007097975140443415
0.06786894195991522       8.687442329270398E-5     2.8377274107950024E-4    -0.0020323136431501833   -0.007104187502776823    -0.007451685195947636    -0.008806823949253842    0.009154321642424643     -0.009154321642424643    0.008806823949253842     0.007451685195947636     0.007104187502776823
0.06865435513913609       8.698875463942823E-5     2.8410096639478057E-4    -0.002033947003045207    -0.007109507603717627    -0.007457462622275337    -0.008814113402086328    0.009162068420644025     -0.009162068420644025    0.008814113402086328     0.007457462622275337     0.007109507603717627
0.06913017481485761       8.704796122241007E-5     2.8430189028664306E-4    -0.002034950565546717    -0.007112800668882115    -0.007460992513771753    -0.008818612010601991    0.009166803855491616     -0.009166803855491616    0.008818612010601991     0.007460992513771753     0.007112800668882115
0.07003728198846182       8.716003427540897E-5     2.8468437752131933E-4    -0.0020368219416600974   -0.007118914565525611    -0.007467554702627244    -0.008827020830653546    0.009175660967755166     -0.009175660967755166    0.008827020830653546     0.007467554702627244     0.007118914565525611
0.07177179136275935       8.737433283536889E-5     2.8541574390602014E-4    -0.0020404002612963517   -0.007130605147796604    -0.007480102479138077    -0.008843099611232743    0.009192596942574204     -0.009192596942574204    0.008843099611232743     0.007480102479138077     0.007130605147796604
0.07300009916627959       8.755951235291863E-5     2.85960505370327E-4      -0.002043027411402168    -0.007139109104791848    -0.00748934715420352     -0.008854872137013829    0.009205110186425489     -0.009205110186425489    0.008854872137013829     0.00748934715420352      0.007139109104791848
0.07480309635501259       8.78329928641299E-5      2.8677252910898587E-4    -0.0020468776363951127   -0.00715152697252523     -0.007502858943981747    -0.008872162147179164    0.009223494118635666     -0.009223494118635666    0.008872162147179164     0.007502858943981747     0.00715152697252523
0.07557416661504468       8.794706728854616E-5     2.8712540690791193E-4    -0.002048503037809336    -0.0071567417959365115   -0.007508530065090694    -0.008879494237384003    0.009231282506538171     -0.009231282506538171    0.008879494237384003     0.007508530065090694     0.0071567417959365115
0.0765464985893265        8.807561298948628E-5     2.8756370009232863E-4    -0.0020505714435652186   -0.007163443448004911    -0.007515745899962854    -0.008888825648558902    0.00924112810051683      -0.00924112810051683     0.008888825648558902     0.007515745899962854     0.007163443448004911
0.08045145018809108       8.860878137433649E-5     2.892920452476985E-4     -0.002058871579833535    -0.0071903926208423665   -0.007544827746339711    -0.008926144892328578    0.009280580017825904     -0.009280580017825904    0.008926144892328578     0.007544827746339711     0.0071903926208423665
0.08614893943532298       8.939307694270433E-5     2.9179207392449665E-4    -0.002070968390353151    -0.007229711185753702    -0.0075872834935245175   -0.0089804636293007      0.0093380359370715       -0.0093380359370715      0.0089804636293007       0.0075872834935245175    0.007229711185753702
0.09068087362194088       9.009053599057668E-5     2.9384687856460085E-4    -0.0020807341576361913   -0.007261214922869803    -0.007621577066832108    -0.009024296194257427    0.009384658338219717     -0.009384658338219717    0.009024296194257427     0.007621577066832108     0.007261214922869803
0.09257484503301106       9.035220575522777E-5     2.946925820217341E-4     -0.0020848519553155983   -0.00727462566368673     -0.007636034486707641    -0.009042781155817154    0.009404189978838049     -0.009404189978838049    0.009042781155817154     0.007636034486707641     0.00727462566368673
0.0960796218157558        9.083642326270178E-5     2.9625754853829456E-4    -0.002092471902279145    -0.007299442116976287    -0.007662787810027093    -0.009076987408206073    0.009440333101256864     -0.009440333101256864    0.009076987408206073     0.007662787810027093     0.007299442116976287
0.09730751556833406       9.100098539689835E-5     2.9681090706582897E-4    -0.0020951225762250608   -0.0073080556129089536   -0.007672059554496546    -0.009088921055303945    0.009452924996891524     -0.009452924996891524    0.009088921055303945     0.007672059554496546     0.0073080556129089536
0.09848357176026279       9.116218688758536E-5     2.973706340855477E-4     -0.002097708000133185    -0.00731639572450092     -0.007681044472051261    -0.009100619529014224    0.009465268276564551     -0.009465268276564551    0.009100619529014224     0.007681044472051261     0.00731639572450092
0.10230005939321929       9.173500580734204E-5     2.991345174104257E-4     -0.0021060843814029104   -0.0073434639617656755   -0.007710403984995043    -0.009138271066228248    0.0095052110894576       -0.0095052110894576      0.009138271066228248     0.007710403984995043     0.0073434639617656755
0.10671027345344819       9.239693748296473E-5     3.0117280595951093E-4    -0.002115763866312171    -0.007374743172404217    -0.007744330922336075    -0.0091817800081613      0.009551367758093144     -0.009551367758093144    0.0091817800081613       0.007744330922336075     0.007374743172404217
0.10720626038154402       9.247320781201741E-5     3.014036370539143E-4     -0.002116847607169609    -0.007378233101892655    -0.007748125933140723    -0.009186654924216156    0.009556547755464212     -0.009556547755464212    0.009186654924216156     0.007748125933140723     0.007378233101892655
0.1074136366057814        9.250564866777693E-5     3.015031144200474E-4     -0.0021173066084772835   -0.007379705793313433    -0.00774972838798454     -0.009188724479833734    0.009558747074504827     -0.009558747074504827    0.009188724479833734     0.00774972838798454      0.007379705793313433
0.1080441512039112        9.259944279548924E-5     3.018086603256563E-4     -0.00211871702033101     -0.007384243214756088    -0.007754640985938046    -0.009195095176710043    0.009565492947891985     -0.009565492947891985    0.009195095176710043     0.007754640985938046     0.007384243214756088
0.11632760444308166       9.38042049649562E-5      3.0576544562154953E-4    -0.0021371895127522073   -0.007443853304214265    -0.007819070124074089    -0.009278445977943582    0.009653662797803391     -0.009653662797803391    0.009278445977943582     0.007819070124074089     0.007443853304214265
0.12057978591631935       9.447884983118536E-5     3.077292751123026E-4     -0.002146680544335799    -0.007474576652343913    -0.007852492051668655    -0.00932095230301775     0.009698867702342476     -0.009698867702342476    0.00932095230301775      0.007852492051668655     0.007474576652343913
0.12240316026496889       9.470951166018299E-5     3.08604685867081E-4      -0.0021507880505513776   -0.007487919121283896    -0.007866757167924628    -0.009339547236486402    0.009718385283127118     -0.009718385283127118    0.009339547236486402     0.007866757167924628     0.007487919121283896
0.12440033128262296       9.502760882118476E-5     3.0956724946290906E-4    -0.0021553773882656345   -0.007502752587031435    -0.007882863022316174    -0.00936015608380891     0.009740266519093634     -0.009740266519093634    0.00936015608380891      0.007882863022316174     0.007502752587031435
0.13056296396552747       9.600915519022407E-5     3.125374136714768E-4     -0.002169538620499011    -0.0075485239306011635   -0.007932560551362055    -0.00942374841263004     0.009807785033390921     -0.009807785033390921    0.00942374841263004      0.007932560551362055     0.0075485239306011635
0.13425964830066417       9.657344847318198E-5     3.1437564366503597E-4    -0.002177935160290706    -0.007575466813221349    -0.007961760607114074    -0.009461720675211581    0.009848014469104296     -0.009848014469104296    0.009461720675211581     0.007961760607114074     0.007575466813221349
0.13455762076035516       9.660935197554407E-5     3.145292570634233E-4     -0.0021786181212891955   -0.007577666010015421    -0.007964103417917593    -0.009464841552395978    0.009851278960298138     -0.009851278960298138    0.009464841552395978     0.007964103417917593     0.007577666010015421
0.13693187669660523       9.697323953676513E-5     3.1575766761936957E-4    -0.002184167354613121    -0.007595449936520839    -0.007983342894667898    -0.009489995942237076    0.00987788890038412      -0.00987788890038412     0.009489995942237076     0.007983342894667898     0.007595449936520839
0.13759322315270595       9.707390361790116E-5     3.160993863462423E-4     -0.002185708754953368    -0.007600389053538938    -0.00798868466801054     -0.00949698537161641     0.009885280986088        -0.009885280986088       0.00949698537161641      0.00798868466801054      0.007600389053538938
0.1376317044588049        9.708056865411518E-5     3.1611845572055385E-4    -0.0021857984485260857   -0.007600677289634445    -0.007988999564250905    -0.009497388023957786    0.009885710298574232     -0.009885710298574232    0.009497388023957786     0.007988999564250905     0.007600677289634445
0.13778589301914357       9.710727440926291E-5     3.161948637136738E-4     -0.0021861578366095713   -0.007601832206478732    -0.007990261304115781    -0.009499001388760793    0.009887430486397831     -0.009887430486397831    0.009499001388760793     0.007990261304115781     0.007601832206478732
0.14811282145476445       9.87770723804632E-5      3.2127648650416937E-4    -0.0022101258631057608   -0.007679119848149604    -0.008074228137671453    -0.009606778767174638    0.010001887056696477     -0.010001887056696477    0.009606778767174638     0.008074228137671453     0.007679119848149604
0.15120123588247347       9.927986581418666E-5     3.2281820938938446E-4    -0.002217479334162682    -0.0077029029768541975   -0.008100022440110941    -0.009639812233190518    0.010036931696447251     -0.010036931696447251    0.009639812233190518     0.008100022440110941     0.0077029029768541975
0.15181110296000178       9.937252793672233E-5     3.2313823911361746E-4    -0.002218905800543957    -0.0077074634289615255   -0.008104953540708412    -0.009646292863643246    0.01004378297539012      -0.01004378297539012     0.009646292863643246     0.008104953540708412     0.0077074634289615255
0.15392100907111828       9.969310333062523E-5     3.2424541917920645E-4    -0.0022238408269555357   -0.007723240843623268    -0.008122013256945768    -0.009668713358698525    0.01006748577202101      -0.01006748577202101     0.009668713358698525     0.008122013256945768     0.007723240843623268
0.15506044461246216       9.990783262596521E-5     3.248319827665432E-4     -0.0022265869035267625   -0.0077320360005554865   -0.008131667331059345    -0.009681027897154762    0.010080659227658606     -0.010080659227658606    0.009681027897154762     0.008131667331059345     0.0077320360005554865
0.16022664429183453       1.0073236988967742E-4    3.2750668075940596E-4    -0.002238999657469415    -0.007772013847820084    -0.008174943327378791    -0.009737053932376536    0.010139983411935229     -0.010139983411935229    0.009737053932376536     0.008174943327378791     0.007772013847820084
0.16058047174554924       1.0078634522071942E-4    3.276974293115272E-4     -0.00223985044946226     -0.007774736819473015    -0.008177882200355889    -0.009740921395342196    0.010144066776225057     -0.010144066776225057    0.009740921395342196     0.008177882200355889     0.007774736819473015
0.16096357858496035       1.0084478703540782E-4    3.279039623946958E-4     -0.00224077164488662     -0.007777685118291572    -0.008181064266433202    -0.009745108892659764    0.010148488040801379     -0.010148488040801379    0.009745108892659764     0.008181064266433202     0.007777685118291572
0.166661795477127         1.0177963796559149E-4    3.3086699077197046E-4    -0.0022543656917299658   -0.007821302518672765    -0.008228421070535128    -0.009806504463304605    0.010213623015166956     -0.010213623015166956    0.009806504463304605     0.008228421070535128     0.007821302518672765
0.16796472715147215       1.0203155978699086E-4    3.315342733118973E-4     -0.002257548902390546    -0.007831529670052507    -0.008239655909200467    -0.009820735309923907    0.010228861549071855     -0.010228861549071855    0.009820735309923907     0.008239655909200467     0.007831529670052507
0.16925205270119514       1.0227438770642299E-4    3.321920600519988E-4     -0.002260719714652855    -0.007841753903042578    -0.008250851453868266    -0.009834906263354587    0.010244003814180263     -0.010244003814180263    0.009834906263354587     0.008250851453868266     0.007841753903042578
0.1698013083628651        1.0236149310101743E-4    3.324860199424712E-4     -0.0022620710492858805   -0.007846103151114073    -0.00825554912351814     -0.009841019270768915    0.01025046524317297      -0.01025046524317297     0.009841019270768915     0.00825554912351814      0.007846103151114073
0.1739078778241423        1.0300103989734179E-4    3.3469764169148506E-4    -0.002272039416610537    -0.007878062661573005    -0.00829006682116237     -0.009886248511721932    0.010298252671311285     -0.010298252671311285    0.009886248511721932     0.00829006682116237      0.007878062661573005
0.17496387461596674       1.0316549818095502E-4    3.352663561607544E-4     -0.002274602763952844    -0.0078862809909672      -0.008298942983691014    -0.009897879127931742    0.010310541120655548     -0.010310541120655548    0.009897879127931742     0.008298942983691014     0.0078862809909672
0.17827746111055642       1.0377860185515891E-4    3.370248901538119E-4     -0.00228283658524937     -0.007912714466825722    -0.008327828874246355    -0.009934863807748613    0.01034997821516923      -0.01034997821516923     0.009934863807748613     0.008327828874246355     0.007912714466825722
0.1805895449270971        1.0413694135381705E-4    3.3830793342158724E-4    -0.002288575334538117    -0.007931103655180065    -0.008347651420595329    -0.009960951255709605    0.010377499021124859     -0.010377499021124859    0.009960951255709605     0.008347651420595329     0.007931103655180065
0.18267753498118044       1.044605495655223E-4     3.394666204738938E-4     -0.0022937578678667338   -0.007947710510914203    -0.00836555270917629     -0.009984510233757586    0.010402352432019658     -0.010402352432019658    0.009984510233757586     0.00836555270917629      0.007947710510914203
0.1835458961330072        1.0459765496928707E-4    3.399536196500051E-4     -0.002295909256575087    -0.007954580857411754    -0.0083729714772889      -0.009994302575311803    0.010412693195188935     -0.010412693195188935    0.009994302575311803     0.0083729714772889       0.007954580857411754
0.18428619272459046       1.0472688835817343E-4    3.403804518432926E-4     -0.0022977586151514805   -0.007960439328359693    -0.008379346881792385    -0.010002722039419466    0.010421629592852144     -0.010421629592852144    0.010002722039419466     0.008379346881792385     0.007960439328359693
0.1874213372070792        1.0529742285703357E-4    3.421020372568193E-4     -0.002305624131134513    -0.007985595567053522    -0.008406785258481654    -0.010038207790594455    0.010459397482022573     -0.010459397482022573    0.010038207790594455     0.008406785258481654     0.007985595567053522
0.1931997570541535        1.0634898137054649E-4    3.4527511058008126E-4    -0.002320121151580523    -0.00803196131184075     -0.008457357237322934    -0.010103611975321256    0.010529007900803425     -0.010529007900803425    0.010103611975321256     0.008457357237322934     0.00803196131184075
0.19338446735050852       1.0637802468047615E-4    3.4537994479627424E-4    -0.0023205878418901637   -0.008033455483810873    -0.008458967582532777    -0.010105735152588537    0.010531247251310426     -0.010531247251310426    0.010105735152588537     0.008458967582532777     0.008033455483810873
0.19399824065445426       1.0648755916859151E-4    3.4572706392528585E-4    -0.002322160226200271    -0.008038484594688037    -0.0084644348313624      -0.01011284697823977     0.010538797214914119     -0.010538797214914119    0.01011284697823977      0.0084644348313624       0.008038484594688037
0.2008135485920879        1.0770431796389012E-4    3.495928004961868E-4     -0.002339586103874889    -0.00809415737808321     -0.008524974649938769    -0.010191714181060348    0.010622531452915893     -0.010622531452915893    0.010191714181060348     0.008524974649938769     0.00809415737808321
0.20361705749726          1.0819671337257113E-4    3.511698771380811E-4     -0.002346737573347388    -0.00811704723523016     -0.008549834088720445    -0.010224066498058668    0.010656853351548935     -0.010656853351548935    0.010224066498058668     0.008549834088720445     0.00811704723523016
0.20715757696558867       1.0881855392650501E-4    3.531615492684504E-4     -0.0023557690826990544   -0.00814595457513785     -0.00858122879084387     -0.010264923870748573    0.010700198086454575     -0.010700198086454575    0.010264923870748573     0.00858122879084387      0.00814595457513785
0.20854919658152338       1.0909250695271213E-4    3.5394158808898124E-4    -0.0023593679849201335   -0.00815746216150816     -0.008593832189319008    -0.01028111169004207     0.0107174817178529       -0.0107174817178529      0.01028111169004207      0.008593832189319008     0.00815746216150816
0.21042689788055458       1.0946214959592623E-4    3.5499408827641365E-4    -0.0023642239551135893   -0.00817298925643326     -0.008610837854816963    -0.010302953786091761    0.010740802384475449     -0.010740802384475449    0.010302953786091761     0.008610837854816963     0.00817298925643326
0.2111177767563559        1.095994458528914E-4     3.554057150965819E-4     -0.0023660107776540132   -0.00817862707362052     -0.008617024857032082    -0.01031106136420003     0.010749459147611577     -0.010749459147611577    0.01031106136420003      0.008617024857032082     0.00817862707362052
0.21530998673651958       1.103382571453829E-4     3.578904253539193E-4     -0.0023769890786156877   -0.008213608524110221    -0.00865496155269175     -0.010360951076233756    0.01080230410481527      -0.01080230410481527     0.010360951076233756     0.00865496155269175      0.008213608524110221
0.22093068658066906       1.1133242843131138E-4    3.6121100408322893E-4    -0.0023916895739358106   -0.008260460426630926    -0.008705790140356167    -0.010427726451130319    0.010873056164855548     -0.010873056164855548    0.010427726451130319     0.008705790140356167     0.008260460426630926
0.22445320437019967       1.1200383461083305E-4    3.632601157518881E-4     -0.002400887890980126    -0.008289763547443168    -0.008737778885886498    -0.010469324241954518    0.01091733958039783      -0.01091733958039783     0.010469324241954518     0.008737778885886498     0.008289763547443168
0.22505225225195558       1.120876254369702E-4     3.636108348082368E-4     -0.0024024740427957885   -0.008294888415884497    -0.008743238917632373    -0.010476553424733939    0.0109249039264818       -0.0109249039264818      0.010476553424733939     0.008743238917632373     0.008294888415884497
0.23129781864616272       1.1335129893956774E-4    3.673098180319011E-4     -0.0024192045185331876   -0.008348186022157904    -0.008801591217916174    -0.010552044930349334    0.011005450126107586     -0.011005450126107586    0.010552044930349334     0.008801591217916174     0.008348186022157904
0.23176592484036984       1.1343254802494722E-4    3.6759837812335686E-4    -0.0024204473985490298   -0.008352129363776148    -0.008805859555875937    -0.010557719632516312    0.01101144982461608      -0.01101144982461608     0.010557719632516312     0.008805859555875937     0.008352129363776148
0.23224045760983136       1.1351491256952797E-4    3.6789089982259724E-4    -0.0024217073419194103   -0.008356126843070787    -0.008810186493348898    -0.010563472242006391    0.011017531892284483     -0.011017531892284483    0.010563472242006391     0.008810186493348898     0.008356126843070787
0.23252670221309124       1.1356883087990903E-4    3.6807126682470917E-4    -0.0024224882448493556   -0.00835860151716347     -0.008812876840683102    -0.010567029118111746    0.011021304441631364     -0.011021304441631364    0.010567029118111746     0.008812876840683102     0.00835860151716347
0.2328015058257893        1.1362059411427068E-4    3.6824442468769554E-4    -0.002423237935651808    -0.008360977280315597    -0.008815459656772676    -0.010570443828441791    0.011024926204898856     -0.011024926204898856    0.010570443828441791     0.008815459656772676     0.008360977280315597
0.23859587142027494       1.1474649872519847E-4    3.717907547593728E-4     -0.0024387582496152214   -0.008410167736732366    -0.008869153731633155    -0.01064091226528862     0.011099898260189396     -0.011099898260189396    0.01064091226528862      0.008869153731633155     0.008410167736732366
0.24002771084946328       1.1498567804510819E-4    3.726709108126566E-4     -0.0024426617383165082   -0.008422662864737841    -0.008882605576918272    -0.010658688329613803    0.011118631041794214     -0.011118631041794214    0.010658688329613803     0.008882605576918272     0.008422662864737841
0.24289195481472148       1.1558470468268358E-4    3.744592714915444E-4     -0.002450548960411905    -0.008447648617807613    -0.008909987436538343    -0.0106944042467569      0.011156743065487614     -0.011156743065487614    0.0106944042467569       0.008909987436538343     0.008447648617807613
0.24522364549139897       1.160723533756224E-4     3.759151195170891E-4     -0.002456969699164535    -0.008467988731355621    -0.008932278144858107    -0.010723479448458176    0.011187768861960646     -0.011187768861960646    0.010723479448458176     0.008932278144858107     0.008467988731355621