% Model:              Cylinder_slice_potential.mph
% Version:            COMSOL 6.2.0.339
% Date:               May 8 2024, 04:47
% Dimension:          1
% Nodes:              691
% Expressions:        11
% Description:        Line graph
% Arc length (m)          Magnetic scalar potential Magnetic scalar potential Magnetic scalar potential Magnetic scalar potential Magnetic scalar potential Magnetic scalar potential Magnetic scalar potential Magnetic scalar potential Magnetic scalar potential Magnetic scalar potential Magnetic scalar potential
0                         -0.005222598368961526    -0.004848758346696041    -1.6846776895139516E-7   -0.024992145649087       -0.0041017521732408975   0.0041004044310892765    -0.024990797906935366    0.024990797906935366     -0.0041004044310892765   0.0041017521732408975    0.024992145649087
0.0031663418568647203     -0.005243153205979369    -0.004783336798734522    1.3038332139858381E-5    -0.024784163479602887    -0.003811550655685414    0.003915857312804271     -0.024888470136721734    0.024888470136721734     -0.003915857312804271    0.003811550655685414     0.024784163479602887
0.004195504762854689      -0.005249935855808499    -0.0047609757671925055   1.7539928950903345E-5    -0.02471263929739092     -0.003712895874156924    0.003853215305764141     -0.02485295872899812     0.02485295872899812      -0.003853215305764141    0.003712895874156924     0.02471263929739092
0.005530634895982928      -0.005257052214342227    -0.004731522008836583    2.3369965048670732E-5    -0.024615190594999538    -0.0035869817376306306   0.003773941458019987     -0.02480215031538888     0.02480215031538888      -0.003773941458019987    0.0035869817376306306    0.024615190594999538
0.006320686125852325      -0.005262389626199444    -0.004714060181929004    2.6498922208980722E-5    -0.024560964109349992    -0.0035114056045522186   0.003723396982224055     -0.024772955487021818    0.024772955487021818     -0.003723396982224055    0.0035114056045522186    0.024560964109349992
0.01095566743735825       -0.005293702537659762    -0.004611617152513358    4.4855526710358315E-5    -0.02424283442601818     -0.003068024275379136    0.003426868489061992     -0.024601678639701023    0.024601678639701023     -0.003426868489061992    0.003068024275379136     0.02424283442601818
0.014044880012002468      -0.005303871069219297    -0.004551136354739502    5.675510717147733E-5     -0.024034130773971207    -0.002818646497094022    0.0032726873544658298    -0.024488171631343       0.024488171631343        -0.0032726873544658298   0.002818646497094022     0.024034130773971207
0.01587570101832234       -0.00530989744672903     -0.004515292426111149    6.380739034985954E-5     -0.023910442610392085    -0.002670852823475964    0.00318131194627483      -0.02442090173319094     0.02442090173319094      -0.00318131194627483     0.002670852823475964     0.023910442610392085
0.016560920803555243      -0.005312509580030843    -0.0045010657075953385   6.638358642497954E-5     -0.0238626819371478      -0.002612643617024427    0.003143712308424252     -0.024393750628547615    0.024393750628547615     -0.003143712308424252    0.002612643617024427     0.0238626819371478
0.018618380066689914      -0.0053227740215299      -0.004452744526346621    7.455609707719608E-5     -0.023705557233790895    -0.0024144611476712963   0.0030109099242888546    -0.024302006010408442    0.024302006010408442     -0.0030109099242888546   0.0024144611476712963    0.023705557233790895
0.01959980268887692       -0.0053271475846707024   -0.004429879337177449    7.851307336776417E-5     -0.02362988088740271     -0.0023212905487199034   0.0029493951356620064    -0.024257985474344802    0.024257985474344802     -0.0029493951356620064   0.0023212905487199034    0.02362988088740271
0.020238624527796612      -0.005327781421605501    -0.0044166085016638015   8.101943213600835E-5     -0.023581310619658388    -0.002270184933236389    0.0029183403903244452    -0.024229466076746434    0.024229466076746434     -0.0029183403903244452   0.002270184933236389     0.023581310619658388
0.023706151236642298      -0.005331221890240988    -0.004344574369784267    9.462395446344372E-5     -0.023317671071981023    -0.001992783511017068    0.0027497751467246076    -0.024074662707688547    0.024074662707688547     -0.0027497751467246076   0.001992783511017068     0.023317671071981023
0.024756317409969995      -0.005333313425703856    -0.004319857882864617    9.876352687732095E-5     -0.0232311463924923      -0.001897892689676876    0.0026880009046954334    -0.024021254607510843    0.024021254607510843     -0.0026880009046954334   0.001897892689676876     0.0232311463924923
0.027339970136204678      -0.005339091870358165    -0.0042684882292423395   1.0774419791287048E-4    -0.023052671636791887    -0.0016963041553592268   0.0025582577386621813    -0.023914625220094826    0.023914625220094826     -0.0025582577386621813   0.0016963041553592268    0.023052671636791887
0.029896104989934676      -0.005346230256792751    -0.004215772405069788    1.1763303717978165E-4    -0.022869245580075758    -0.0014843245529047562   0.0024253888503430006    -0.023810309877513987    0.023810309877513987     -0.0024253888503430006   0.0014843245529047562    0.022869245580075758
0.03117548257832757       -0.0053482462051672695   -0.004190910988056034    1.222061905875202E-4     -0.022780400612152578    -0.0013874157914834984   0.002365065316183651     -0.023758050136852712    0.023758050136852712     -0.002365065316183651    0.0013874157914834984    0.022780400612152578
0.034142863256453         -0.005351106059044047    -0.004128652588085547    1.332569522839586E-4     -0.022555142073208922    -0.001150717837032732    0.002216773455304392     -0.023621197691480564    0.023621197691480564     -0.002216773455304392    0.001150717837032732     0.022555142073208922
0.036909970613731254      -0.005353772896757694    -0.004070596108214035    1.435618802020917E-4     -0.022345086597349142    -9.299950103183686E-4    0.002078490051935093     -0.023493581638965852    0.023493581638965852     -0.002078490051935093    9.299950103183686E-4     0.022345086597349142
0.04168749161457447       -0.005360733130873542    -0.003968472848362398    1.6204994968794118E-4    -0.021978685008082532    -5.357524845883618E-4    0.001832152082091882     -0.02327508460558604     0.02327508460558604      -0.001832152082091882    5.357524845883618E-4     0.021978685008082532
0.041867138360543905      -0.005360731538141938    -0.003964925409536183    1.6266449824397906E-4    -0.021965581311916525    -5.226551593487748E-4    0.0018239711453005981    -0.023266897297868336    0.023266897297868336     -0.0018239711453005981   5.226551593487748E-4     0.021965581311916525
0.048868606257890974      -0.005360669463768478    -0.003826669194955082    1.866156250135792E-4     -0.021454884012347908    -1.2206157273989863E-5   0.0015051311573826146    -0.022947809012456518    0.022947809012456518     -0.0015051311573826146   1.2206157273989863E-5    0.021454884012347908
0.058217044690529754      -0.005346696212360306    -0.003635343685779191    2.177813214458449E-4     -0.020728298196274825    6.584866531664016E-4     0.0010837639184003488    -0.022470548767841568    0.022470548767841568     -0.0010837639184003488   -6.584866531664016E-4    0.020728298196274825
0.06233373937374946       -0.0053406041661855155   -0.0035503622631729323   2.3152412724037553E-4    -0.020406198612928347    9.562180518137185E-4     8.959749661092767E-4     -0.02225839163085133     0.02225839163085133      -8.959749661092767E-4    -9.562180518137185E-4    0.020406198612928347
0.06372846006302163       -0.005338054171215999    -0.0035222923823667544   2.3646224121483457E-4    -0.020297136524672944    0.0010550801601910533    8.366177695276142E-4     -0.0221888344543916      0.0221888344543916       -8.366177695276142E-4    -0.0010550801601910533   0.020297136524672944
0.06604936855896902       -0.005334954394370487    -0.003477463426167319    2.44137866590564E-4      -0.020125747600880695    0.0012140699766012536    7.390329561232493E-4     -0.022078850533605185    0.022078850533605185     -7.390329561232493E-4    -0.0012140699766012536   0.020125747600880695
0.06721114147979183       -0.005332456549489232    -0.0034549462796378853   2.479793640121213E-4     -0.020037834481843653    0.0012919917161132745    6.91843195983687E-4      -0.022021669393940606    0.022021669393940606     -6.91843195983687E-4     -0.0012919917161132745   0.020037834481843653
0.0699233782854819        -0.005323240162033844    -0.0034049132781145174   2.558776062907972E-4     -0.019837709733248072    0.0014552509148873048    5.917699354390641E-4     -0.02188473058357443     0.02188473058357443      -5.917699354390641E-4    -0.0014552509148873048   0.019837709733248072
0.0826561393120977        -0.005284949628221814    -0.003161560472317919    2.9497021922845947E-4    -0.01887469979648357     0.002265098716403691     9.466303742397674E-5     -0.021234461550311223    0.021234461550311223     -9.466303742397674E-5    -0.002265098716403691    0.01887469979648357
0.0847291896993472        -0.005277027080709375    -0.003121801886138551    3.013337714707682E-4     -0.018714124733951353    0.002393983588886153     1.6686582879983875E-5    -0.021124794905717476    0.021124794905717476     -1.6686582879983875E-5   -0.002393983588886153    0.018714124733951353
0.08628120370137478       -0.005271095770623204    -0.00309203614439357     3.060979210753521E-4     -0.018593908290125732    0.0024904747923670885    -4.169142376428078E-5    -0.021042691658728525    0.021042691658728525     4.169142376428078E-5     -0.0024904747923670885   0.018593908290125732
0.09486834883628617       -0.005227561231645721    -0.0029353704669962096   3.290698333979354E-4     -0.017944954530688353    0.002965290395894535     -3.327317287110609E-4    -0.02057751319787182     0.02057751319787182      3.327317287110609E-4     -0.002965290395894535    0.017944954530688353
0.10152040067201717       -0.005191470587977847    -0.002815724777235253    3.4809260026357755E-4    -0.017437745106607172    0.003328137245304229     -5.433964431956167E-4    -0.02022248590871577     0.02022248590871577      5.433964431956167E-4     -0.003328137245304229    0.017437745106607172
0.1022844186979785        -0.005187197046500146    -0.0028013866844908007   3.504175283694732E-4     -0.01737688403299483     0.0033719041530057637    -5.685639260499869E-4    -0.020180224259950592    0.020180224259950592     5.685639260499869E-4     -0.0033719041530057637   0.01737688403299483
0.10513329950475844       -0.0051717032177174315   -0.0027527839950987347   3.589398225964934E-4     -0.01716599913034512     0.003520813740524615     -6.492951597526768E-4    -0.02003751771111705     0.02003751771111705      6.492951597526768E-4     -0.003520813740524615    0.01716599913034512
0.10819736057479211       -0.005151418116425572    -0.0026992137253863627   3.6706439305955903E-4    -0.016932219836772018    0.003673452628930273     -7.369374844538108E-4    -0.01986873498124847     0.01986873498124847      7.369374844538108E-4     -0.003673452628930273    0.016932219836772018
0.11642502987872111       -0.005103327899852022    -0.0025626475996815942   3.8750384853532656E-4    -0.016344583204607542    0.004068728394800552     -9.686976065179492E-4    -0.019444613992890138    0.019444613992890138     9.686976065179492E-4     -0.004068728394800552    0.016344583204607542
0.1169936858864834        -0.005100058619832985    -0.0025528940317834023   3.888471409980844E-4     -0.016303410771023857    0.004096823708308083     -9.860465803234167E-4    -0.019414187899008513    0.019414187899008513     9.860465803234167E-4     -0.004096823708308083    0.016303410771023857
0.11890292484059577       -0.005089082147802357    -0.0025201468322135117   3.933571897123414E-4     -0.016165176033395904    0.004191152557813528     -0.0010442950401148062   -0.019312033551094614    0.019312033551094614     0.0010442950401148062    -0.004191152557813528    0.016165176033395904
0.12263547933666577       -0.005061102578499682    -0.0024609928191442615   4.0190854011171965E-4    -0.01589754945398529     0.004346860860013442     -0.001131592539119695    -0.01911281777487903     0.01911281777487903      0.001131592539119695     -0.004346860860013442    0.01589754945398529
0.12830276837704932       -0.005022136724153596    -0.002371496149121788    4.147022134526686E-4     -0.015499953041861907    0.004588593854752487     -0.001270976147131148    -0.018817570749483235    0.018817570749483235     0.001270976147131148     -0.004588593854752487    0.015499953041861907
0.1286283799787091        -0.005019897958113386    -0.0023663541572696736   4.1543726833304865E-4    -0.01547710931470362     0.00460248251774993      -0.0012789843710855511   -0.01880060746136799     0.01880060746136799      0.0012789843710855511    -0.00460248251774993     0.01547710931470362
0.1328843253276834        -0.0049897142800436195   -0.0022955721739145426   4.251148308398374E-4     -0.01516568575847154     0.004793171361702946     -0.0013922527149842572   -0.018566604405190222    0.018566604405190222     0.0013922527149842572    -0.004793171361702946    0.01516568575847154
0.13523545962569003       -0.0049689324223846035   -0.002259535198530992    4.3029364500633436E-4    -0.01499529586033687     0.004880433829201555     -0.00143808466915089     -0.018437645020387528    0.018437645020387528     0.00143808466915089      -0.004880433829201555    0.01499529586033687
0.13840562355706823       -0.0049428782461721004   -0.0022111231517299135   4.371701376437836E-4     -0.01477044539695883     0.00500106758772958      -0.0015037064865793225   -0.018267806498109083    0.018267806498109083     0.0015037064865793225    -0.00500106758772958     0.01477044539695883
0.1420823834549159        -0.004916040637287716    -0.002157390178391103    4.448396460471948E-4     -0.014524893225559983    0.005139269323590889     -0.0015805521552133407   -0.01808361039393752     0.01808361039393752      0.0015805521552133407    -0.005139269323590889    0.014524893225559983
0.14576548239316509       -0.004888490650855322    -0.0021022366660902888   4.519739006624738E-4     -0.014275795697331636    0.005278166906089659     -0.0016623757007898793   -0.017891586902631408    0.017891586902631408     0.0016623757007898793    -0.005278166906089659    0.014275795697331636
0.14686572581477106       -0.004880260708666479    -0.0020857607880037004   4.5410509964466947E-4    -0.014201383382765402    0.005319659451900522     -0.0016868186547431769   -0.01783422417992274     0.01783422417992274      0.0016868186547431769    -0.005319659451900522    0.014201383382765402
0.15404113161845115       -0.00481792291283357     -0.0019780263502969884   4.6740738293437023E-4    -0.013700295344820649    0.005571396306513643     -0.001832137243038691    -0.017439554408295588    0.017439554408295588     0.001832137243038691     -0.005571396306513643    0.013700295344820649
0.15422841713755267       -0.00481630043892028     -0.001975590586099935    4.6775749060819774E-4    -0.013688342673707596    0.005576859081973535     -0.0018347991571079623   -0.017430402598573154    0.017430402598573154     0.0018347991571079623    -0.005576859081973535    0.013688342673707596
0.15668023497591296       -0.004797212486188533    -0.0019432977014226436   4.7214407303013296E-4    -0.013535741784524487    0.0056531081602296555    -0.0018759555759886018   -0.01731289436876553     0.01731289436876553      0.0018759555759886018    -0.0056531081602296555   0.013535741784524487
0.1607715456478527        -0.004765087927365939    -0.001889626585452772    4.795739947743867E-4     -0.013280759631992666    0.005779592077471096     -0.0019430001192760123   -0.01711735159018774     0.01711735159018774      0.0019430001192760123    -0.005779592077471096    0.013280759631992666
0.16111233921390908       -0.004762546635305611    -0.001884757281243133    4.8023179927289805E-4    -0.01325843791724905     0.005791748623973403     -0.0019498942297902287   -0.017100292311432213    0.017100292311432213     0.0019498942297902287    -0.005791748623973403    0.01325843791724905
0.16350771479330298       -0.004739357320554786    -0.001850949068439713    4.8456194798650006E-4    -0.013093314054482734    0.005864115227736422     -0.0019876196438444317   -0.01696980963837471     0.01696980963837471      0.0019876196438444317    -0.005864115227736422    0.013093314054482734
0.16351369895987652       -0.004739299388628207    -0.0018508646082077932   4.845727656350615E-4     -0.013092901539339565    0.005864296015173269     -0.0019877138900927867   -0.016969483664420037    0.016969483664420037     0.0019877138900927867    -0.005864296015173269    0.013092901539339565
0.16389232366767653       -0.0047351789104392965   -0.0018457697912739894   4.851416248193664E-4     -0.013067100695423115    0.005873614946334081     -0.0019924819477791585   -0.016948233693978028    0.016948233693978028     0.0019924819477791585    -0.005873614946334081    0.013067100695423115
0.16796488023362163       -0.004698921554823578    -0.0017949394739791612   4.92152475268049E-4      -0.012814051630512462    0.005981634588781856     -0.002044414786637474    -0.01675127143265683     0.01675127143265683      0.002044414786637474     -0.005981634588781856    0.012814051630512462
0.16941525889483244       -0.004686009052800475    -0.001776837034797968    4.946492823038891E-4     -0.012723932080779316    0.0060201041304225895    -0.002062909871991486    -0.016681126339210404    0.016681126339210404     0.002062909871991486     -0.0060201041304225895   0.012723932080779316
0.171940609650522         -0.004661635960965105    -0.0017430426931373587   4.983662439032205E-4     -0.012558935025729422    0.0060876088181310035    -0.0021006788669052485   -0.016545864976955163    0.016545864976955163     0.0021006788669052485    -0.0060876088181310035   0.012558935025729422
0.17288645756319368       -0.00465325815474726     -0.0017303856831308666   4.998203853106718E-4     -0.012498391817644453    0.006114640801344595     -0.0021160777188592296   -0.016496954900129805    0.016496954900129805     0.0021160777188592296    -0.006114640801344595    0.012498391817644453
0.17378440277898033       -0.004646992722856844    -0.0017189476080916514   5.011418536899176E-4     -0.012446260855228992    0.006141710036198391     -0.0021325752066790604   -0.016455395684748308    0.016455395684748308     0.0021325752066790604    -0.006141710036198391    0.012446260855228992
0.1744993461943435        -0.004641314070978333    -0.0017105211152658318   5.022205135464089E-4     -0.012405309433568549    0.006159946850344794     -0.002142182741973533    -0.016423073541939795    0.016423073541939795     0.002142182741973533     -0.006159946850344794    0.012405309433568549
0.1783582888630252        -0.004604394250521089    -0.0016611387599608615   5.078431083248873E-4     -0.012160832347625234    0.006256744654459131     -0.002193999787860041    -0.016223577214224308    0.016223577214224308     0.002193999787860041     -0.006256744654459131    0.012160832347625234
0.1822592161665108        -0.00456707274874541     -0.001611219133094418    5.135268759708304E-4     -0.011913695392890769    0.006354595602090874     -0.0022463805943242383   -0.01602191040065739     0.01602191040065739      0.0022463805943242383    -0.006354595602090874    0.011913695392890769
0.1836764818902842        -0.004556177651164497    -0.0015939947321128175   5.154987085365104E-4     -0.011832344664521426    0.006392365940136572     -0.002268376271844498    -0.015956334332813488    0.015956334332813488     0.002268376271844498     -0.006392365940136572    0.011832344664521426
0.18822714674083432       -0.004516802185705111    -0.0015430207124023715   5.219987413940383E-4     -0.011574671543041202    0.006492537199779249     -0.0023165472686269522   -0.01575066147419349     0.01575066147419349      0.0023165472686269522    -0.006492537199779249    0.011574671543041202
0.1930390350045379        -0.004471922858467081    -0.0014878880497286515   5.28658127992614E-4      -0.01129287735414968     0.006594814079718651     -0.002365549055777747    -0.015522142378090572    0.015522142378090572     0.002365549055777747     -0.006594814079718651    0.01129287735414968
0.19338512711841616       -0.004468884120693823    -0.0014839707320028546   5.291657621847858E-4     -0.011273017388657087    0.006602519094118213     -0.0023691929966399355   -0.015506343486135351    0.015506343486135351     0.0023691929966399355    -0.006602519094118213    0.011273017388657087
0.19346914670658616       -0.004468160022424714    -0.0014830210499965568   5.292758518095524E-4     -0.011268279787600909    0.006604360302097955     -0.0023701534876215445   -0.015502486602077306    0.015502486602077306     0.0023701534876215445    -0.006604360302097955    0.011268279787600909
0.19503294939053373       -0.004454682845955061    -0.0014653452281710494   5.313248793569898E-4     -0.01118010185899533     0.0066386295248249206    -0.0023880304899690113   -0.015430700893851228    0.015430700893851228     0.0023880304899690113    -0.0066386295248249206   0.01118010185899533
0.19516230803084153       -0.004453463068819874    -0.0014638494989363707   5.315100736070495E-4     -0.011172434340020682    0.006641417935258822     -0.002389337346402434    -0.015424514928877055    0.015424514928877055     0.002389337346402434     -0.006641417935258822    0.011172434340020682
0.19555119515165006       -0.0044497960882687315   -0.0014593529316085185   5.320668176987054E-4     -0.011149383700568217    0.0066498006525067144    -0.00239326611091708     -0.015405918242157838    0.015405918242157838     0.00239326611091708      -0.0066498006525067144   0.011149383700568217
0.1983022975698337        -0.004423333978922993    -0.0014295042125764173   5.354580611440085E-4     -0.010993348350999223    0.006699987564692755     -0.002416323075540695    -0.01527701284015127     0.01527701284015127      0.002416323075540695     -0.006699987564692755    0.010993348350999223
0.20097293714047185       -0.004398617977600243    -0.00139909355056512     5.389000723534188E-4     -0.01083891631748219     0.006755555592918788     -0.002444355014091445    -0.015150116896309518    0.015150116896309518     0.002444355014091445     -0.006755555592918788    0.01083891631748219
0.20249550637597813       -0.004383291908182132    -0.0013813608180793674   5.410471736043455E-4     -0.010746477576185003    0.006786690056543532     -0.0024583126677087752   -0.015074854965019747    0.015074854965019747     0.0024583126677087752    -0.006786690056543532    0.010746477576185003
0.2033593294393406        -0.004375313980217649    -0.0013720017571440706   5.419413127110164E-4     -0.010698867981023461    0.0068023879398471385    -0.002466857438159016    -0.015034398482711571    0.015034398482711571     0.002466857438159016     -0.0068023879398471385   0.010698867981023461
0.20527397720759955       -0.004357268593305815    -0.0013526225709420117   5.435422383651045E-4     -0.010598235945977266    0.006830838427246001     -0.0024825005203251717   -0.014946573852898083    0.014946573852898083     0.0024825005203251717    -0.006830838427246001    0.010598235945977266
0.20691292489040986       -0.004341821655464366    -0.0013360338945038923   5.449126384118482E-4     -0.010512094440793034    0.006855192181064434     -0.0024958910737696563   -0.014871395548087802    0.014871395548087802     0.0024958910737696563    -0.006855192181064434    0.010512094440793034
0.2071996503326363        -0.004339287151065701    -0.0013329306111981671   5.454588655659724E-4     -0.01049553067346203     0.006861617930800778     -0.0024979470062730055   -0.014859201597989794    0.014859201597989794     0.0024979470062730055    -0.006861617930800778    0.01049553067346203
0.2090943739231916        -0.004322538775905042    -0.001312423661965215    5.490684143617983E-4     -0.010386074880258552    0.006904080223361619     -0.002511532908467241    -0.01477862219515292     0.01477862219515292      0.002511532908467241     -0.006904080223361619    0.010386074880258552
0.20963797218806887       -0.004316759578033976    -0.0013070116381603742   5.49186282658216E-4      -0.010357808939916228    0.00690922937221968      -0.002515739110953959    -0.014751299201181936    0.014751299201181936     0.002515739110953959     -0.00690922937221968     0.010357808939916228
0.21056980847302598       -0.004306852875562397    -0.0012977343455672125   5.493883325221406E-4     -0.010309355457737883    0.006918056044511704     -0.0025229493843345868   -0.01470446211791499     0.01470446211791499      0.0025229493843345868    -0.006918056044511704    0.010309355457737883
0.21182196480761104       -0.004293445980482351    -0.0012848343070579866   5.507287657504068E-4     -0.01023847981913705     0.006935304102792355     -0.0025294739767891088   -0.014644309945140287    0.014644309945140287     0.0025294739767891088    -0.006935304102792355    0.01023847981913705
0.21388756077415605       -0.004276504862619424    -0.0012634144464497544   5.546608259983829E-4     -0.010124609760594597    0.006981409689883103     -0.0025441230818960487   -0.014561896368581639    0.014561896368581639     0.0025441230818960487    -0.006981409689883103    0.010124609760594597
0.2160715877511565        -0.00425467887918662     -0.0012426606017813995   5.551312060814944E-4     -0.010016814739391477    0.007001900777355005     -0.002560851128703057    -0.01445786438804341     0.01445786438804341      0.002560851128703057     -0.007001900777355005    0.010016814739391477
0.21865347973715776       -0.004229155393902054    -0.0012163857022680557   5.569604731230941E-4     -0.009879626002115918    0.007036995573492304     -0.002581311788507559    -0.014335309787100648    0.014335309787100648     0.002581311788507559     -0.007036995573492304    0.009879626002115918
0.21879290039028607       -0.004227777140664591    -0.0012149668731028952   5.570592524705915E-4     -0.00987221789075552     0.0070388906719028475    -0.0025824166521381236   -0.01432869191052023     0.01432869191052023      0.0025824166521381236    -0.0070388906719028475   0.00987221789075552
0.2211484232392439        -0.0042051658497965945   -0.0011919915307313394   5.597138759385424E-4     -0.009747450788033055    0.007073212611153328     -0.0025955016036449947   -0.014225161795541372    0.014225161795541372     0.0025955016036449947    -0.007073212611153328    0.009747450788033055
0.2212592896537969        -0.004204073425116731    -0.0011909351175092568   5.597819706901325E-4     -0.009741824320000722    0.007074469380466209     -0.0025962136149451556   -0.014220080085521758    0.014220080085521758     0.0025962136149451556    -0.007074469380466209    0.009741824320000722
0.2258662402765772        -0.004158678734763205    -0.001147036849751522    5.626115846855935E-4     -0.009508021680038618    0.007126693259014205     -0.002625800581529463    -0.014008914357523345    0.014008914357523345     0.002625800581529463     -0.007126693259014205    0.009508021680038618
0.22679214909720247       -0.004149702163544653    -0.001138403971769347    5.632669323541991E-4     -0.009461548512980568    0.00713726014119805      -0.002631124682364462    -0.01396768397181414     0.01396768397181414      0.002631124682364462     -0.00713726014119805     0.009461548512980568
0.23013918442208703       -0.00411917798245099     -0.0011077164692478944   5.666404643480865E-4     -0.009294943515253335    0.0071817684145506315    -0.0026486446997659443   -0.013828067230038005    0.013828067230038005     0.0026486446997659443    -0.0071817684145506315   0.009294943515253335
0.2324141698544015        -0.004098430646202363    -0.0010868581231553486   5.689334596100368E-4     -0.009181701823430642    0.007212020761378815     -0.002660553084498526    -0.013733169500310914    0.013733169500310914     0.002660553084498526     -0.007212020761378815    0.009181701823430642
0.23257507226852592       -0.004096956867205081    -0.001085422838443936    5.690150824751327E-4     -0.009174121919841457    0.007213705548978874     -0.002661584889177818    -0.013726242579642499    0.013726242579642499     0.002661584889177818     -0.007213705548978874    0.009174121919841457
0.23379820089170117       -0.004085163668797548    -0.0010746542504298335   5.697626751456628E-4     -0.009115239388301962    0.007225415286888234     -0.0026673138857229374   -0.013673340789467244    0.013673340789467244     0.0026673138857229374    -0.007225415286888234    0.009115239388301962
0.23559028642624005       -0.004067884684501341    -0.0010588764896597655   5.708580219351987E-4     -0.009028966750241198    0.007242571987764168     -0.0026757078122825843   -0.013595830925722769    0.013595830925722769     0.0026757078122825843    -0.007242571987764168    0.009028966750241198
0.23837772628920662       -0.0040414508796219085   -0.0010349069863659819   5.728226000783022E-4     -0.008896332318028569    0.007269471200459067     -0.002686890399832655    -0.013478913118654966    0.013478913118654966     0.002686890399832655     -0.007269471200459067    0.008896332318028569
0.2420647630212012        -0.004006486032181893    -0.001003201750222237    5.754212110376748E-4     -0.008720892470879812    0.0073050516578477605    -0.0027016819695463695   -0.013324262159181192    0.013324262159181192     0.0027016819695463695    -0.0073050516578477605   0.008720892470879812
0.24313264517940644       -0.003996295039931094    -9.934043847725658E-4    5.761232002048895E-4     -0.008668310433360344    0.007316869726364037     -0.0027078841247249285   -0.01327729603499944     0.01327729603499944      0.0027078841247249285    -0.007316869726364037    0.008668310433360344