% Model:              Cylinder_slice_potential_1.mph
% Version:            COMSOL 6.2.0.415
% Date:               May 17 2024, 18:29
% Dimension:          1
% Nodes:              675
% Expressions:        11
% Description:        Line graph
% Arc length (m)          Magnetic scalar potential Magnetic scalar potential Magnetic scalar potential Magnetic scalar potential Magnetic scalar potential Magnetic scalar potential Magnetic scalar potential Magnetic scalar potential Magnetic scalar potential Magnetic scalar potential Magnetic scalar potential
0                         -0.0023695396642012365   1.3551280152096386E-6    2.706731794163077E-7     -0.004733931251639175    0.004744227405165762     -0.004742062019730441    -0.004736096637074502    0.004736096637074502     0.004742062019730441     -0.004744227405165762    0.004733931251639175
6.148328902925939E-4      -0.0023638535202815556   3.513039465474295E-6     -5.279785441427568E-7    -0.004719279836343255    0.004736134244782957     -0.00474035807313611     -0.00471505600799011     0.00471505600799011      0.00474035807313611      -0.004736134244782957    0.004719279836343255
0.006959353108830905      -0.002304881574321522    2.280581948410535E-5     -9.197678671929826E-6    -0.0045781364048784415   0.004641389892407636     -0.004714971321783085    -0.0045045549755030004   0.0045045549755030004    0.004714971321783085     -0.004641389892407636    0.0045781364048784415
0.008872966860207466      -0.0022885317860950206   2.8717906085222748E-5    -1.1537786032873462E-5   -0.004537060998065862    0.00461706614631421      -0.004709368434577208    -0.004444758709802871    0.004444758709802871     0.004709368434577208     -0.00461706614631421     0.004537060998065862
0.012608309129394287      -0.0022566172709475563   4.025820096675826E-5     -1.6105636746467076E-5   -0.004456882485980701    0.004569586597809515     -0.004698431691781259    -0.004328037392008962    0.004328037392008962     0.004698431691781259     -0.004569586597809515    0.004456882485980701
0.012860704216864426      -0.0022545423929690787   4.1064532942036E-5       -1.6422572206509666E-5   -0.004451581475938084    0.004566588095938223     -0.004697968673590308    -0.0043202008982860035   0.0043202008982860035    0.004697968673590308     -0.004566588095938223    0.004451581475938084
0.012975671920155269      -0.0022535769109499715   4.132930173072107E-5     -1.657606502860415E-5    -0.004449470176822192    0.004564837466977686     -0.004697445987206526    -0.004316861656593355    0.004316861656593355     0.004697445987206526     -0.004564837466977686    0.004449470176822192
0.01555543524191233       -0.002230683057752047    4.727989123268779E-5     -1.998502030251737E-5    -0.004399466523016097    0.004523265707992085     -0.004683145870412231    -0.004239586360595954    0.004239586360595954     0.004683145870412231     -0.004523265707992085    0.004399466523016097
0.017947269000247183      -0.002211349641548802    5.3484210928484956E-5    -2.284778256441947E-5    -0.004353637780569824    0.004491760785625379     -0.004674543046140741    -0.004170855520054464    0.004170855520054464     0.004674543046140741     -0.004491760785625379    0.004353637780569824
0.021129213205060768      -0.0021855597332321175   6.183105920605323E-5     -2.6359086394656572E-5   -0.0042910626344246985   0.004451176298503766     -0.004662048989661025    -0.004080189943267443    0.004080189943267443     0.004662048989661025     -0.004451176298503766    0.0042910626344246985
0.030453570115387327      -0.002109985086302236    8.629063090396448E-5     -3.6648597469111646E-5   -0.004107692669769023    0.0043322476754399175    -0.004625436455192816    -0.003814503890016128    0.003814503890016128     0.004625436455192816     -0.0043322476754399175   0.004107692669769023
0.03210165800470254       -0.002096459418346054    8.976904250681948E-5     -3.854248561114471E-5    -0.004077781651616225    0.004308056021767986     -0.004616395906657148    -0.0037694417667270656   0.0037694417667270656    0.004616395906657148     -0.004308056021767986    0.004077781651616225
0.03751156061964679       -0.0020532466870192235   1.0058780273010387E-4    -4.4225620151491646E-5   -0.003981632446454099    0.004231354301622791     -0.004585159262834728    -0.0036278274852421643   0.0036278274852421643    0.004585159262834728     -0.004231354301622791    0.003981632446454099
0.03864260769182757       -0.0020446895731576365   1.0263099579570303E-4    -4.547866380293757E-5    -0.0039634008141399115   0.00421535747849063      -0.004579186788914134    -0.003599571503716409    0.003599571503716409     0.004579186788914134     -0.00421535747849063     0.0039634008141399115
0.039912706077406206      -0.0020352190353639383   1.0509890368174603E-4    -4.668901216727804E-5    -0.003941897408351748    0.004198978733104002     -0.00457249083044223     -0.0035683853110135225   0.0035683853110135225    0.00457249083044223      -0.004198978733104002    0.003941897408351748
0.05063798541978221       -0.0019552455746358038   1.2593902265961977E-4    -5.6909735582516075E-5   -0.0037603130236228107   0.004060669274920401     -0.004515947159580534    -0.0033050351389626803   0.0033050351389626803    0.004515947159580534     -0.004060669274920401    0.0037603130236228107
0.051922557494131265      -0.0019456404357204606   1.28408300419512E-4      -5.813487643482116E-5    -0.0037385954759216675   0.00404396626696017      -0.004509045278438743    -0.0032735164644430966   0.0032735164644430966    0.004509045278438743     -0.00404396626696017     0.0037385954759216675
0.0554228091032359        -0.0019190354864558768   1.3406859874581258E-4    -6.141803830120113E-5    -0.0036815373298791187   0.003994604615944385     -0.004485948922353998    -0.003190193023469508    0.003190193023469508     0.004485948922353998     -0.003994604615944385    0.0036815373298791187
0.055860724661319416      -0.0019156308691927635   1.3464832980440537E-4    -6.178859559067171E-5    -0.0036744711313349957   0.003988052345436054     -0.004482361110161433    -0.0031801623666096205   0.0031801623666096205    0.004482361110161433     -0.003988052345436054    0.0036744711313349957
0.05805906237754786       -0.001900159831941786    1.3742643962997905E-4    -6.370814315633761E-5    -0.0036428729176189835   0.003957766410148157     -0.004467431555398863    -0.003133207772368281    0.003133207772368281     0.004467431555398863     -0.003957766410148157    0.0036428729176189835
0.05933794638340796       -0.0018913812689314103   1.390918036148201E-4     -6.479566558216934E-5    -0.0036246697893470357   0.0039408552863786014    -0.004459220611035961    -0.003106304464689679    0.003106304464689679     0.004459220611035961     -0.0039408552863786014   0.0036246697893470357
0.06479905085053349       -0.001852943429609601    1.4781051483379957E-4    -6.937179726418838E-5    -0.003539942503774554    0.0038718312146638445    -0.004426805592777357    -0.0029849681256610455   0.0029849681256610455    0.004426805592777357     -0.0038718312146638445   0.003539942503774554
0.06549213389277286       -0.0018480651829518714   1.4891702926369795E-4    -6.995256609711479E-5    -0.003529189542501105    0.003863071189306375     -0.004422691718083299    -0.002969569013724185    0.002969569013724185     0.004422691718083299     -0.003863071189306375    0.003529189542501105
0.06589702540588235       -0.0018453454362650356   1.4946122616436947E-4    -7.025541535453176E-5    -0.003523328855455087    0.00385805288960505      -0.004420096212441309    -0.002961285532618831    0.002961285532618831     0.004420096212441309     -0.00385805288960505     0.003523328855455087
0.06848500263110217       -0.001827961415469335    1.5293961269353414E-4    -7.219116099377898E-5    -0.0034858686368331813   0.003825977025044155     -0.004403506312994392    -0.0029083393488829484   0.0029083393488829484    0.004403506312994392     -0.003825977025044155    0.0034858686368331813
0.07132390801040223       -0.0018098530554181659   1.5683754221494287E-4    -7.42956113687095E-5     -0.0034463759296663394   0.003793036292006321     -0.004387401182956003    -0.002852011038716662    0.002852011038716662     0.004387401182956003     -0.003793036292006321    0.0034463759296663394
0.07981900626925434       -0.0017536951117640026   1.6777082085075464E-4    -8.070110585582162E-5    -0.0033268821843990275   0.003687898262656983     -0.004333507109503562    -0.002681273337552453    0.002681273337552453     0.004333507109503562     -0.003687898262656983    0.0033268821843990275
0.08060537922492683       -0.0017484966918293308   1.6878289091446172E-4    -8.129404868931098E-5    -0.00331582090567252     0.003678165861644803     -0.004328518251159297    -0.0026654685161580306   0.0026654685161580306    0.004328518251159297     -0.003678165861644803    0.00331582090567252
0.08135688582309133       -0.0017437955654769938   1.695818435054872E-4     -8.179431944545245E-5    -0.0033060228782193354   0.003669159383688639     -0.004323513939252266    -0.0026516683226557145   0.0026516683226557145    0.004323513939252266     -0.003669159383688639    0.0033060228782193354
0.08851433461550533       -0.001698851095076709    1.7556290026867415E-4    -8.667681633810842E-5    -0.0032177207546998294   0.003577683625607007     -0.004271098156311881    -0.002524306223994961    0.002524306223994961     0.004271098156311881     -0.003577683625607007    0.0032177207546998294
0.09093503301325205       -0.001683650566139519    1.7758573479301253E-4    -8.832811036030001E-5    -0.0031878563693412006   0.0035467458952168755    -0.004253370778099282    -0.0024812314864587994   0.0024812314864587994    0.004253370778099282     -0.0035467458952168755   0.0031878563693412006
0.09268126176396319       -0.0016722801974679623   1.7889472799950104E-4    -8.954154565080595E-5    -0.0031660423935406454   0.0035230783963312038    -0.004239410761537658    -0.0024497100283341964   0.0024497100283341964    0.004239410761537658     -0.0035230783963312038   0.0031660423935406454
0.09785186639471494       -0.0016408977480889516   1.8385472866776827E-4    -9.285526710695467E-5    -0.003101652378602417    0.003461938613753389     -0.004204780750609035    -0.0023588102417467782   0.0023588102417467782    0.004204780750609035     -0.003461938613753389    0.003101652378602417
0.11047969594288565       -0.0015687376629147356   1.9314114896100656E-4    -9.983271118339214E-5    -0.002957382723680019    0.003317567927978919     -0.0041162296174460655   -0.0021587210342128797   0.0021587210342128797    0.0041162296174460655    -0.003317567927978919    0.002957382723680019
0.11052880336036436       -0.0015684558764275714   1.9316609059866156E-4    -9.986065382437227E-5    -0.002956856096356647    0.0033169674093536357    -0.0041158526399486224   -0.002157970865761666    0.002157970865761666     0.0041158526399486224    -0.0033169674093536357   0.002956856096356647
0.11054615801610192       -0.0015683562925413216   1.9317490502135487E-4    -9.98705288074096E-5     -0.002956669985248216    0.0033167551849170663    -0.004115719415376352    -0.0021577057547889373   0.0021577057547889373    0.004115719415376352     -0.0033167551849170663   0.002956669985248216
0.11338050093207236       -0.0015510850951506456   1.948029251525513E-4     -1.0162283041289787E-4   -0.0029242527364952272   0.003280087644107351     -0.004093070287410542    -0.002111270093192043    0.002111270093192043     0.004093070287410542     -0.003280087644107351    0.0029242527364952272
0.11687752089682424       -0.001531858407509182    1.958417811468638E-4     -1.0329375918931042E-4   -0.002889366508335014    0.0032380671217017115    -0.004064417195216203    -0.002063016434820528    0.002063016434820528     0.004064417195216203     -0.0032380671217017115   0.002889366508335014
0.1194755293222343        -0.0015180301742057953   1.974807976638437E-4     -1.0455812200807518E-4   -0.002861850443452359    0.0032102702533708186    -0.004046735229435428    -0.0020253854673877554   0.0020253854673877554    0.004046735229435428     -0.0032102702533708186   0.002861850443452359
0.1222387839498321        -0.0015033223967816116   1.9922406374834042E-4    -1.0590290456372177E-4   -0.002832584220573088    0.0031807053665533543    -0.004027928603063138    -0.001985360984063311    0.001985360984063311     0.004027928603063138     -0.0031807053665533543   0.002832584220573088
0.1250697228590252        -0.001487676411632107    2.0058435858076365E-4    -1.0744033729901671E-4   -0.002803361096717989    0.003147344549810435     -0.004006867248202578    -0.0019438383983258522   0.0019438383983258522    0.004006867248202578     -0.003147344549810435    0.002803361096717989
0.12751653565426752       -0.0014756346913875464   2.0135803799339896E-4    -1.0869097190216189E-4   -0.002781959156403543    0.0031205796091466386    -0.003990107384363943    -0.0019124313811862443   0.0019124313811862443    0.003990107384363943     -0.0031205796091466386   0.002781959156403543
0.12780711354978652       -0.0014742046442119319   2.014499183922456E-4     -1.0883949440938101E-4   -0.0027794175108846503   0.003117401065963074     -0.00398811702123813     -0.0019087015556095992   0.0019087015556095992    0.00398811702123813      -0.003117401065963074    0.0027794175108846503
0.13590359832400206       -0.0014327923049467473   2.0449606819622143E-4    -1.1251877953573014E-4   -0.00270217152344775     0.0030289976963392366    -0.003929147932625085    -0.0018020212871619067   0.0018020212871619067    0.003929147932625085     -0.0030289976963392366   0.00270217152344775
0.13804395520196747       -0.0014216021206172273   2.052474581996471E-4     -1.1345472543937874E-4   -0.0026812807683930266   0.0030051277140758785    -0.003912765517590916    -0.0017736429648779952   0.0017736429648779952    0.003912765517590916     -0.0030051277140758785   0.0026812807683930266
0.1402529596346174        -0.0014100530340884526   2.0602294749552284E-4    -1.1442068988725422E-4   -0.0026597199852393524   0.002980492151114455     -0.0038958576702124957   -0.0017443544661413172   0.0017443544661413172    0.0038958576702124957    -0.002980492151114455    0.0026597199852393524
0.14086897292566336       -0.0014070302037759695   2.0617634369403794E-4    -1.1463618394909846E-4   -0.002654076112266217    0.0029740447028376565    -0.0038911341744304515   -0.0017369866406734282   0.0017369866406734282    0.0038911341744304515    -0.0029740447028376565   0.002654076112266217
0.14170190295901156       -0.0014029429443132597   2.0638375529148529E-4    -1.1492755992868724E-4   -0.002646444862466811    0.002965326914786224     -0.0038847473942157295   -0.0017270243830373117   0.0017270243830373117    0.0038847473942157295    -0.002965326914786224    0.002646444862466811
0.145420138072684         -0.0013838929492420394   2.0739488389032702E-4    -1.1625727376061422E-4   -0.002610630341855553    0.0029249414551126007    -0.0038549996451975213   -0.0016805721517706377   0.0016805721517706377    0.0038549996451975213    -0.0029249414551126007   0.002610630341855553
0.15041640542955886       -0.0013600295874438225   2.0949740595795289E-4    -1.1763034331769136E-4   -0.002562088330284551    0.0028780300194907365    -0.0038190727660322742   -0.0016210455837430181   0.0016210455837430181    0.0038190727660322742    -0.0028780300194907365   0.002562088330284551
0.15054763672072122       -0.0013593939366185635   2.095447387774867E-4     -1.1766183043693388E-4   -0.0025608009786524015   0.00287677476782185      -0.0038180694113173277   -0.0016195063351569288   0.0016195063351569288    0.0038180694113173277    -0.00287677476782185     0.0025608009786524015
0.1507225526032784        -0.0013585466888005045   2.096078278611142E-4     -1.1770379906501569E-4   -0.002559085090277729    0.002875101664924287     -0.0038167320574444196   -0.0016174546977576012   0.0016174546977576012    0.0038167320574444196    -0.002875101664924287    0.002559085090277729
0.1539269175329992        -0.0013434156858352423   2.0980116793120507E-4    -1.1900259195280369E-4   -0.002533438235688084    0.002840224507652883     -0.003792245243275319    -0.001581417500065652    0.001581417500065652     0.003792245243275319     -0.002840224507652883    0.002533438235688084
0.1561739282353806        -0.0013335853774232224   2.1027128134923595E-4    -1.1972729639617928E-4   -0.0025152660963834537   0.0028190754133094334    -0.0037768937844788746   -0.0015574477252140173   0.0015574477252140173    0.0037768937844788746    -0.0028190754133094334   0.0025152660963834537
0.1577535886600936        -0.0013263170419811217   2.1056199353527505E-4    -1.2029969168194103E-4   -0.002502146870084182    0.0028031212978403023    -0.0037655188312958367   -0.0015397493366286514   0.0015397493366286514    0.0037655188312958367    -0.0028031212978403023   0.002502146870084182
0.16010385468647811       -0.0013155029951197271   2.1099452382065452E-4    -1.2115131850802485E-4   -0.00248262769280959     0.0027793842876693165    -0.0037485948357335215   -0.0015134171447453888   0.0015134171447453888    0.0037485948357335215    -0.0027793842876693165   0.00248262769280959
0.16093931390338886       -0.0013117689824998315   2.1137355291501924E-4    -1.213564246577738E-4    -0.0024748430048857004   0.0027722329251136236    -0.0037430843223758203   -0.001503991607623508    0.001503991607623508     0.0037430843223758203    -0.0027722329251136236   0.0024748430048857004
0.16208088908074053       -0.001306666811104138    2.1189145994969272E-4    -1.2163668260997085E-4   -0.0024642059727990806   0.002762461271617468     -0.0037355547324972407   -0.0014911125119193116   0.0014911125119193116    0.0037355547324972407    -0.002762461271617468    0.0024642059727990806
0.16369978707853888       -0.0012989541604513286   2.1225221737846908E-4    -1.2189773012859697E-4   -0.002448742589281638    0.0027470740525236737    -0.003722255893552456    -0.00147356074825286     0.00147356074825286      0.003722255893552456     -0.0027470740525236737   0.002448742589281638
0.16494757931493775       -0.0012934788754180534   2.120493935455543E-4     -1.223544867161765E-4    -0.0024402275170641503   0.0027336879846080603    -0.0037125238783374793   -0.001461391623334736    0.001461391623334736     0.0037125238783374793    -0.0027336879846080603   0.0024402275170641503
0.16840311455850832       -0.0012785425413960913   2.1310714298941803E-4    -1.2318080698314312E-4   -0.0024104868817565028   0.0027036832838278606    -0.0036891297396930145   -0.0014250404258913545   0.0014250404258913545    0.0036891297396930145    -0.0027036832838278606   0.0024104868817565028
0.169361354016166         -0.0012744023263264702   2.1320848800890382E-4    -1.2351822413119744E-4   -0.002403252085151021    0.0026943572201548584    -0.0036825030132044477   -0.0014151062921014376   0.0014151062921014376    0.0036825030132044477    -0.0026943572201548584   0.002403252085151021
0.16977998094890712       -0.0012725259532610533   2.1336143138813799E-4    -1.237076999363485E-4    -0.0023997984121030894   0.002690305400941124     -0.0036799670004319207   -0.001410136812612298    0.001410136812612298     0.0036799670004319207    -0.002690305400941124    0.0023997984121030894
0.16979130394339728       -0.0012724752012424432   2.1336556819087312E-4    -1.2371282486580226E-4   -0.0023997049973754785   0.002690195807594294     -0.003679898406520721    -0.0014100023984490568   0.0014100023984490568    0.003679898406520721     -0.002690195807594294    0.0023997049973754785
0.16981335159086294       -0.0012723744022781816   2.1336791406827667E-4    -1.237140230569743E-4    -0.002399501154579433    0.002689996454533293     -0.0036797086389890963   -0.001409788970123635    0.001409788970123635     0.0036797086389890963    -0.002689996454533293    0.002399501154579433
0.16999689904326185       -0.001271535247301512    2.1338744358142427E-4    -1.2372399804126477E-4   -0.0023978041560238127   0.0026883368331822345    -0.0036781288175123618   -0.001408012171693691    0.001408012171693691     0.0036781288175123618    -0.0026883368331822345   0.0023978041560238127
0.17029257851159593       -0.0012701719333248684   2.1333171582494119E-4    -1.2370956046921062E-4   -0.0023951869610517582   0.002685500772247715     -0.003675177256001409    -0.0014055104772980696   0.0014055104772980696    0.003675177256001409     -0.002685500772247715    0.0023951869610517582
0.17077639233926323       -0.0012680217390740448   2.1336375576021558E-4    -1.2378559207746188E-4   -0.002391094579177293    0.0026809923771188857    -0.0036712771137385894   -0.0014008098425575943   0.0014008098425575943    0.0036712771137385894    -0.0026809923771188857   0.002391094579177293
0.1710865362670567        -0.001266640975519104    2.1339369320321036E-4    -1.2383251648317886E-4   -0.002388430937361294    0.0026781329647151205    -0.0036687930965805596   -0.00139777080549586     0.00139777080549586      0.0036687930965805596    -0.0026781329647151205   0.002388430937361294
0.1713106213807813        -0.0012656433465781248   2.1341532359709186E-4    -1.2386642029314977E-4   -0.0023865064035375754   0.002676066982774923     -0.00366699834512013     -0.0013955750411923738   0.0013955750411923738    0.00366699834512013      -0.002676066982774923    0.0023865064035375754
0.17265023827864956       -0.0012599457613649662   2.1349259762906374E-4    -1.242070918936694E-4    -0.0023762420974174207   0.002663540948042444     -0.003657197683191807    -0.0013825853622680625   0.0013825853622680625    0.003657197683191807     -0.002663540948042444    0.0023762420974174207
0.17461733328090567       -0.0012515794206480297   2.1360606690698787E-4    -1.2470733446589963E-4   -0.0023611699784386953   0.002645147704153422     -0.0036428063798806263   -0.001363511302711496    0.001363511302711496     0.0036428063798806263    -0.002645147704153422    0.0023611699784386953
0.17967259122919862       -0.0012300208036760349   2.1424728107605608E-4    -1.2596234665944672E-4   -0.0023211491507616885   0.002598934063942449     -0.0036066328372180287   -0.001313450377486113    0.001313450377486113     0.0036066328372180287    -0.002598934063942449    0.0023211491507616885
0.1820309087021963        -0.0012206225453298574   2.1460072335510483E-4    -1.2643090216959204E-4   -0.0023031665292727686   0.002579323652046659     -0.003590770869403401    -0.0012917193119160307   0.0012917193119160307    0.003590770869403401     -0.002579323652046659    0.0023031665292727686
0.18382734608060392       -0.0012131932108009422   2.1487705596377353E-4    -1.2676420131812685E-4   -0.0022888120589830718   0.002563960784220696     -0.0035780743947657163   -0.0012746984484380552   0.0012746984484380552    0.0035780743947657163    -0.002563960784220696    0.0022888120589830718
0.19038040514117407       -0.0011860941257178684   2.1491405938500914E-4    -1.2820217167786648E-4   -0.0022402547599921743   0.0025041217428792974    -0.003529739116302234    -0.0012146373865692412   0.0012146373865692412    0.003529739116302234     -0.0025041217428792974   0.0022402547599921743
0.19042834293363395       -0.001185895886955703    2.149143300772631E-4     -1.2821269090621944E-4   -0.0022398995473044943   0.002503684000518317     -0.0035293855277680774   -0.0012141980200547373   0.0012141980200547373    0.0035293855277680774    -0.002503684000518317    0.0022398995473044943
0.19694560303823563       -0.0011607660181590703   2.1510122050684362E-4    -1.2931970169139675E-4   -0.0021935071815631967   0.0024495568910730837    -0.003484114504604263    -0.0011589495680320206   0.0011589495680320206    0.003484114504604263     -0.0024495568910730837   0.0021935071815631967
0.19769885890998357       -0.0011578737611975419   2.1511680097395337E-4    -1.294542130241439E-4    -0.002188213971569799    0.002443281073220367     -0.0034789147774135234   -0.0011525802673766454   0.0011525802673766454    0.0034789147774135234    -0.002443281073220367    0.002188213971569799
0.19770087467833689       -0.001157866021304271    2.1511684266843422E-4    -1.2945457298640624E-4   -0.0021881998065488646   0.0024432642786682193    -0.0034789008625594744   -0.0011525632226576123   0.0011525632226576123    0.0034789008625594744    -0.0024432642786682193   0.0021881998065488646
0.19793459734348726       -0.0011570148517710257   2.1511405532462333E-4    -1.2949279440086853E-4   -0.0021866587151716556   0.0024414006919124464    -0.0034773430471194      -0.0011507163599647052   0.0011507163599647052    0.0034773430471194       -0.0024414006919124464   0.0021866587151716556
0.19934084289347326       -0.0011517503593161263   2.150235103651962E-4     -1.2972827486796778E-4   -0.002177343287008535    0.002429658150255969     -0.003467484349199716    -0.0011395170880647899   0.0011395170880647899    0.003467484349199716     -0.002429658150255969    0.002177343287008535
0.212562044835647         -0.001102254794427067    2.1417222717824233E-4    -1.3194220884911903E-4   -0.0020897617427158826   0.0023192574349923845    -0.0033747951057853404   -0.0010342240719229282   0.0010342240719229282    0.0033747951057853404    -0.0023192574349923845   0.0020897617427158826
0.21390964227160664       -0.001097281745891951    2.141433907514093E-4     -1.3214840554841314E-4   -0.0020807269417233262   0.0023084000418444766    -0.0033655872862317854   -0.001023539697336019    0.001023539697336019     0.0033655872862317854    -0.0023084000418444766   0.0020807269417233262
0.21440003257321016       -0.0010954934615251654   2.141305139076185E-4     -1.3220381456033217E-4   -0.002077410639568803    0.002304563206531857     -0.003362193723014518    -0.0010197801230861438   0.0010197801230861438    0.003362193723014518     -0.002304563206531857    0.002077410639568803
0.21946342438661406       -0.0010772681557746355   2.1337080044578132E-4    -1.3281322416128843E-4   -0.0020456768068570796   0.00226339581624146      -0.0033259016095317714   -9.831710135667705E-4    9.831710135667705E-4     0.0033259016095317714    -0.00226339581624146     0.0020456768068570796
0.21965813326526637       -0.0010765753676153502   2.1335440958624067E-4    -1.3282560809374231E-4   -0.002044389938846946    0.0022619115316144514    -0.003324516396364394    -9.817850740970059E-4    9.817850740970059E-4     0.003324516396364394     -0.0022619115316144514   0.002044389938846946
0.22226821005101408       -0.0010672885271563691   2.1313468975486168E-4    -1.3299161497970423E-4   -0.0020271394449669694   0.0022420146636585054    -0.003305947583496143    -9.632065251293333E-4    9.632065251293333E-4     0.003305947583496143     -0.0022420146636585054   0.0020271394449669694
0.22615332698282964       -0.0010540019766657675   2.1283646741749397E-4    -1.3353229517291785E-4   -0.002003623731770723    0.0022123841748923445    -0.0032806425362756912   -9.353653703873786E-4    9.353653703873786E-4     0.0032806425362756912    -0.0022123841748923445   0.002003623731770723
0.23109919046808328       -0.0010373037196184406   2.1243278527316648E-4    -1.340226579670997E-4    -0.001973399715285779    0.0021758151631879807    -0.0032479964269247824   -9.012184515489802E-4    9.012184515489802E-4     0.0032479964269247824    -0.0021758151631879807   0.001973399715285779
0.23272407626591707       -0.0010318945110463227   2.1209903011804593E-4    -1.341957285020788E-4    -0.0019642748457468213   0.002163303198438467     -0.003236869026455102    -8.907090177301898E-4    8.907090177301898E-4     0.003236869026455102     -0.002163303198438467    0.0019642748457468213
0.23378836152205115       -0.0010283778551149494   2.1193602029396516E-4    -1.3425915907008237E-4   -0.001957984285628332    0.0021555271348314645    -0.003229600407392128    -8.839110130676718E-4    8.839110130676718E-4     0.003229600407392128     -0.0021555271348314645   0.001957984285628332
0.23839701169405264       -0.0010131497601379858   2.1123014257043394E-4    -1.3453383101207818E-4   -0.001930744416612982    0.0021218546239389615    -0.0031981252720355907   -8.544737685163555E-4    8.544737685163555E-4     0.0031981252720355907    -0.0021218546239389615   0.001930744416612982
0.24226407297893265       -0.0010006995001162824   2.1052577356727326E-4    -1.346414863176999E-4    -0.001908387624801544    0.002094410375663585     -0.0031715422662051884   -8.312557342599436E-4    8.312557342599436E-4     0.0031715422662051884    -0.002094410375663585    0.001908387624801544
0.24637193226110962       -9.877516052339153E-4    2.1005411616618338E-4    -1.348582426745903E-4    -0.0018847738326676412   0.0020662325882680192    -0.003145098529664746    -8.059078912709178E-4    8.059078912709178E-4     0.003145098529664746     -0.0020662325882680192   0.0018847738326676412
0.24944533312856          -9.7806430373949E-4      2.0970123351707744E-4    -1.350204145333447E-4    -0.0018671065650611258   0.002045150649896833     -0.0031253139661635947   -7.869432487943672E-4    7.869432487943672E-4     0.0031253139661635947    -0.002045150649896833    0.0018671065650611258
0.2514442361040005        -9.71999212623855E-4     2.093854224189172E-4     -1.351487763108881E-4    -0.0018564372632345104   0.0020315595872609084    -0.0031127497977480175   -7.752470527474043E-4    7.752470527474043E-4     0.0031127497977480175    -0.0020315595872609084   0.0018564372632345104
0.2539195617777461        -9.644885550598838E-4    2.0899434024587797E-4    -1.3530773210183178E-4   -0.0018432250177894604   0.002014729202450073     -0.003097191059264732    -7.607631609748046E-4    7.607631609748046E-4     0.003097191059264732     -0.002014729202450073    0.0018432250177894604