% Model:              Cylinder_slice_potential_6.mph
% Version:            COMSOL 6.2.0.415
% Date:               May 21 2024, 17:44
% Dimension:          1
% Nodes:              843
% Expressions:        11
% Description:        Line graph
% Arc length (m)          Magnetic scalar potential Magnetic scalar potential Magnetic scalar potential Magnetic scalar potential Magnetic scalar potential Magnetic scalar potential Magnetic scalar potential Magnetic scalar potential Magnetic scalar potential Magnetic scalar potential Magnetic scalar potential
0                         3.791556553400401E-6     -0.02417662599365898     -3.8235290675855695E-7   -0.07252382427949716     -0.07253899050571079     0.07253593168245667      -0.07252076545624306     0.07252076545624306      -0.07253593168245667     0.07253899050571079      0.07252382427949716
2.2624124707436007E-4     3.804648026707436E-6     -0.024176371419504728    1.1405033382168628E-5    -0.07247588482893208     -0.07249110342103894     0.07258234368809624      -0.0725671250959894      0.0725671250959894       -0.07258234368809624     0.07249110342103894      0.07247588482893208
0.0036562322853346024     5.495648188539517E-6     -0.02417377872485905     1.897107936130199E-4     -0.07175150170374797     -0.07177348429650218     0.07329117064540627      -0.0732691880526521      0.0732691880526521       -0.07329117064540627     0.07177348429650218      0.07175150170374797
0.0038889570489745715     6.152302429239899E-6     -0.024173323880970272    2.0160787506802945E-4    -0.07170123553778018     -0.0717258447474972      0.07333870774804138      -0.07331409853832441     0.07331409853832441      -0.07333870774804138     0.0717258447474972       0.07170123553778018
0.005530250019616904      6.032494351902107E-6     -0.024173114348993035    2.903779874060111E-4     -0.07134576610865123     -0.07136989608605887     0.07369291998530692      -0.0736687900078993      0.0736687900078993       -0.07369291998530692     0.07136989608605887      0.07134576610865123
0.010805604968923181      5.647413720317232E-6     -0.024172440882663182    5.75698073368102E-4      -0.0702032355270765      -0.07022582518195777     0.07483140976890255      -0.07480882011402129     0.07480882011402129      -0.07483140976890255     0.07022582518195777      0.0702032355270765
0.011946515781907238      1.0605356096796945E-5    -0.024175952493810875    6.356209122094678E-4     -0.06996416312040114     -0.07000658454478834     0.07509155184246405      -0.07504913041807686     0.07504913041807686      -0.07509155184246405     0.07000658454478834      0.06996416312040114
0.01446060426120217       9.381577591463157E-6     -0.02416705970605952     7.703029830075912E-4     -0.06940120403096525     -0.06943873034133112     0.07560115420539182      -0.07556362789502598     0.07556362789502598      -0.07560115420539182     0.06943873034133112      0.06940120403096525
0.021556361229130714      7.1938234225316674E-6    -0.024154205523530564    0.0011506121742317704    -0.06784578022681956     -0.06787455552050968     0.07707945291436383      -0.0770506776206737      0.0770506776206737       -0.07707945291436383     0.06787455552050968      0.06784578022681956
0.0220891518578945        6.454353015501586E-6     -0.024152019881910305    0.0011782582479754017    -0.06773011794779829     -0.06775593535986031     0.07718200134366351      -0.07715618393160151     0.07715618393160151      -0.07718200134366351     0.06775593535986031      0.06773011794779829
0.024036242567867742      3.7519482018711855E-6    -0.024144032424428162    0.0012792912062283622    -0.06730742855196728     -0.06732243634477478     0.07755676599460165      -0.07754175820179417     0.07754175820179417      -0.07755676599460165     0.06732243634477478      0.06730742855196728
0.02791590248935285       4.593357860697335E-6     -0.0241264552176333      0.0014872683527911634    -0.06642110552601382     -0.06643947895745661     0.07833762577978591      -0.07831925234834311     0.07831925234834311      -0.07833762577978591     0.06643947895745661      0.06642110552601382
0.03402393257260012       1.3055234470111109E-5    -0.02410360320742045     0.0018165553103585024    -0.06501847791188711     -0.06507069884976757     0.07960314133263557      -0.07955092039475511     0.07955092039475511      -0.07960314133263557     0.06507069884976757      0.06501847791188711
0.03980404827160592       4.9117566256519645E-6    -0.024066573393241697    0.0021201452075603655    -0.06370931583623232     -0.06372896286273494     0.08069012452321785      -0.08067047749671523     0.08067047749671523      -0.08069012452321785     0.06372896286273494      0.06370931583623232
0.043313680098203286      -3.288644213652041E-8    -0.02404408923874682     0.002304482134524708     -0.06291440495102589     -0.06291427340525735     0.081350130481455        -0.08135026202722354     0.08135026202722354      -0.081350130481455       0.06291427340525735      0.06291440495102589
0.045166652061436795      3.460917626397872E-7     -0.024031407115698202    0.0024050982207458015    -0.06247313628058611     -0.06247452064763668     0.08171530641360306      -0.08171392204655248     0.08171392204655248      -0.08171530641360306     0.06247452064763668      0.06247313628058611
0.04651106855292579       7.786872606288083E-7     -0.024024433731457392    0.0024780976272445183    -0.062159353310872835    -0.06216246805991537     0.08198724907787147      -0.08198413432882895     0.08198413432882895      -0.08198724907787147     0.06216246805991537      0.062159353310872835
0.04976769903857136       -1.3352606092923385E-6   -0.02400291044747583     0.0026519821372520003    -0.06140347331463806     -0.061398132272200895    0.08261398937021686      -0.08261933041265403     0.08261933041265403      -0.08261398937021686     0.061398132272200895     0.06140347331463806
0.05259367818891558       1.3495936348295156E-6    -0.02398299845761408     0.0028025737485967645    -0.060736001191185524    -0.06074139956572484     0.08316198955449892      -0.08315659117995959     0.08315659117995959      -0.08316198955449892     0.06074139956572484      0.060736001191185524
0.05833109034977019       6.800488553311324E-6     -0.023942572365735215    0.0031083106618174086    -0.05938087347282938     -0.059408075427042635    0.08427456072158186      -0.08424735876736862     0.08424735876736862      -0.08427456072158186     0.059408075427042635     0.05938087347282938
0.05916275369369376       7.064395006129143E-6     -0.023936672519291987    0.0031523652350712054    -0.05918642782757887     -0.05921468540760341     0.08443360728817301      -0.08440534970814849     0.08440534970814849      -0.08443360728817301     0.05921468540760341      0.05918642782757887
0.05936357408720514       6.928373599171972E-6     -0.02393494364221263     0.003162800496176151     -0.05913977219473494     -0.05916748568913164     0.08446988965854081      -0.08444217616414412     0.08444217616414412      -0.08446988965854081     0.05916748568913164      0.05913977219473494
0.061281059201927515      6.669528644066781E-8     -0.023915514123987083    0.00326163330416518      -0.05869987576472765     -0.05870014254587342     0.08479320897919485      -0.08479294219804906     0.08479294219804906      -0.08479320897919485     0.05870014254587342      0.05869987576472765
0.06473177897289137       -1.228162952397879E-5    -0.02388054862560254     0.0034394935242675886    -0.05790823503878523     -0.057859108520689324    0.08537505671483002      -0.0854241832329259      0.0854241832329259       -0.08537505671483002     0.057859108520689324     0.05790823503878523
0.06765356372144149       -9.6795533735851E-6      -0.02385203639795306     0.003596795110086978     -0.05718828786025844     -0.057149569646764126    0.08592393052745992      -0.08596264874095423     0.08596264874095423      -0.08592393052745992     0.057149569646764126     0.05718828786025844
0.07095189936572062       -6.742129417138265E-6    -0.02381984959952421     0.0037743692546803424    -0.05637555603868552     -0.056348587521016985    0.0865435415584597       -0.08657051007612823     0.08657051007612823      -0.0865435415584597      0.056348587521016985     0.05637555603868552
0.07181443883446173       -3.6625607247023637E-6   -0.023811883237985054    0.0038220544582225997    -0.056154757002514176    -0.05614010675961537     0.08671654242539614      -0.08673119266829495     0.08673119266829495      -0.08671654242539614     0.05614010675961537      0.056154757002514176
0.07250181734995935       -4.17913582440903E-6     -0.023804294831911477    0.0038581454964659533    -0.055988660781519435    -0.05597194423822181     0.0868371082099494       -0.08685382475324702     0.08685382475324702      -0.0868371082099494      0.05597194423822181      0.055988660781519435
0.07402079901539116       -5.626585264797987E-6    -0.02378669269272028     0.003936334423454448     -0.055625993554872646    -0.05560348721381348     0.08709416260144903      -0.08711666894250819     0.08711666894250819      -0.08709416260144903     0.05560348721381348      0.055625993554872646
0.07507024103896014       -1.9365919328177673E-6   -0.023774924457461915    0.003992762013787698     -0.0553575985011006      -0.055349852133369334    0.08729194824367088      -0.08729969461140215     0.08729969461140215      -0.08729194824367088     0.055349852133369334     0.0553575985011006
0.08081078244005205       -2.563112587412262E-6    -0.02372673014775631     0.004297869546847041     -0.05399383848105559     -0.05398358603070596     0.08836654240548225      -0.08837679485583189     0.08837679485583189      -0.08836654240548225     0.05398358603070596      0.05399383848105559
0.08095627343997294       -2.5444595958774093E-6   -0.023725313788506876    0.004305611957254287     -0.053958582455695236    -0.053948404617311756    0.08839330027534603      -0.0884034781137295      0.0884034781137295       -0.08839330027534603     0.053948404617311756     0.053958582455695236
0.0844661239752297        -2.094471539171056E-6    -0.023691145288239332    0.004492391231070759     -0.05310805988351329     -0.05309968199735664     0.08903881184592266      -0.08904718973207934     0.08904718973207934      -0.08903881184592266     0.05309968199735664      0.05310805988351329
0.09077690799071511       -1.496432338103144E-6    -0.023585935733402334    0.004823219297084562     -0.05146792287654495     -0.05146193714719256     0.09004769152386904      -0.09005367725322144     0.09005367725322144      -0.09004769152386904     0.05146193714719256      0.05146792287654495
0.0908239212724047        -1.5383451365078585E-6   -0.023585294641031       0.0048257201086053005    -0.05145608017894481     -0.0514499267983988      0.09005568766724119      -0.0900618410477872      0.0900618410477872       -0.09005568766724119     0.0514499267983988       0.05145608017894481
0.09523593566134737       -5.471698924984995E-6    -0.023525130605138927    0.0050604115833757825    -0.05034468887976359     -0.05032280208406367     0.09080609475106992      -0.09082798154676984     0.09082798154676984      -0.09080609475106992     0.05032280208406367      0.05034468887976359
0.09695192443618063       -4.11251483959079E-6     -0.023501223731855796    0.0051517817751882185    -0.04990476912449367     -0.04988831906513533     0.09110257326664106      -0.09111902332599942     0.09111902332599942      -0.09110257326664106     0.04988831906513533      0.04990476912449367
0.09838128712634477       -4.029823819384812E-6    -0.023481584805559688    0.005225860395068939     -0.04954937248404206     -0.04953325318876453     0.09134013634931604      -0.09135625564459357     0.09135625564459357      -0.09134013634931604     0.04953325318876453      0.04954937248404206
0.09944935078985968       -3.8030088851270878E-6   -0.023465650390314945    0.005283060559767752     -0.04927231494964405     -0.04925710291410355     0.09152158739224556      -0.09153679942778606     0.09153679942778606      -0.09152158739224556     0.04925710291410355      0.04927231494964405
0.10237150061015352       -3.1824585920855547E-6   -0.02342205490978834     0.005439556334977768     -0.04851430430663811     -0.04850157447226977     0.09201802515209191      -0.09203075498646027     0.09203075498646027      -0.09201802515209191     0.04850157447226977      0.04851430430663811
0.10476222751332526       -3.9236536891882245E-6   -0.023383207092287125    0.005564158909468858     -0.047900832946364304    -0.04788513833160756     0.0923984096073584       -0.09241410422211516     0.09241410422211516      -0.0923984096073584      0.04788513833160756      0.047900832946364304
0.11308547229206083       2.9643193875931897E-6    -0.023254552387165246    0.005999573568785433     -0.045759434247578834    -0.045771291525129196    0.09376788007541262      -0.09375602279786226     0.09375602279786226      -0.09376788007541262     0.045771291525129196     0.045759434247578834
0.11326319614477114       3.011667422376174E-6     -0.02325156184589586     0.006009156891337298     -0.04571203463749367     -0.045724081307183154    0.09379733643788149      -0.093785289768192       0.093785289768192        -0.09379733643788149     0.045724081307183154     0.04571203463749367
0.11358087015870423       2.9641585043915822E-6    -0.023245476238284997    0.0060257891123006654    -0.04562734394864357     -0.045639200582661126    0.0938455134810664       -0.09383365684704885     0.09383365684704885      -0.0938455134810664      0.045639200582661126     0.04562734394864357
0.11463299124968321       3.2314998445988677E-6    -0.023224731019326122    0.0060808219159797245    -0.04534444239437027     -0.04535736839374867     0.09400394372158641      -0.09399101772220803     0.09399101772220803      -0.09400394372158641     0.04535736839374867      0.04534444239437027
0.11680514968762255       3.7834398759511214E-6    -0.023181901441253035    0.0061944399870362595    -0.04476037749586217     -0.04477551125536597     0.09433103115165602      -0.09431589739215221     0.09431589739215221      -0.09433103115165602     0.04477551125536597      0.04476037749586217
0.11712657826238454       2.083971086148397E-6     -0.023176047960663894    0.0062115788386145334    -0.04467766058536127     -0.04468599646970585     0.0943786271786221       -0.09437029129427751     0.09437029129427751      -0.0943786271786221      0.04468599646970585      0.04467766058536127
0.11850336399474702       -5.195420250257391E-6    -0.023150975552071247    0.006284990253077353     -0.044323356484404844    -0.04430257480340381     0.09458249682802261      -0.09460327850902363     0.09460327850902363      -0.09458249682802261     0.04430257480340381      0.044323356484404844
0.11878543832412279       -5.536390780533525E-6    -0.02314661949144252     0.0062997581418131       -0.04425189868863623     -0.04422975312551408     0.09462781826001884      -0.09464996382314099     0.09464996382314099      -0.09462781826001884     0.04422975312551408      0.04425189868863623
0.12002786297281916       -7.03822964772732E-6     -0.02312743278590882     0.006364804787550417     -0.043937155666820264    -0.04390900274822934     0.09482744104863264      -0.09485559396722357     0.09485559396722357      -0.09482744104863264     0.04390900274822934      0.043937155666820264
0.12398114393476373       -4.182839512719067E-6    -0.023050866932655643    0.0065673976419021105    -0.04289137590938394     -0.04287464455133305     0.0954138256865499       -0.09543055704460078     0.09543055704460078      -0.0954138256865499      0.04287464455133305      0.04289137590938394
0.12458532045560981       -3.5561868090744134E-6   -0.02303832415716671     0.006598597405515968     -0.042727695223054425    -0.04271347047581812     0.09550224971994581      -0.09551647446718213     0.09551647446718213      -0.09550224971994581     0.04271347047581812      0.042727695223054425
0.1256375656744101        -4.513398104579085E-6    -0.023018129242646374    0.006654017346455177     -0.04244734513832758     -0.04242929154590926     0.09566143031755063      -0.09567948390996896     0.09567948390996896      -0.09566143031755063     0.04242929154590926      0.04244734513832758
0.13091293248426703       -8.298126661408102E-6    -0.022920530883473518    0.0069314426363073145    -0.04105241835851413     -0.04101922585186849     0.09647076694232695      -0.09650395944897258     0.09650395944897258      -0.09647076694232695     0.04101922585186849      0.04105241835851413
0.13234657197255967       -6.5581955779127725E-6   -0.022888380812412047    0.007005247799837304     -0.04065726762904278     -0.04063103484673111     0.0966730172454295       -0.09669925002774114     0.09669925002774114      -0.0966730172454295      0.04063103484673111      0.04065726762904278
0.13459733915445965       -4.5320691609372345E-6   -0.02284046211507118     0.007121088686164065     -0.040046095738879184    -0.04002796746223542     0.0969966769515479       -0.09701480522819164     0.09701480522819164      -0.0969966769515479      0.04002796746223542      0.040046095738879184
0.13986399114653691       2.0893773483451433E-7    -0.02272833541230178     0.007392148989354472     -0.0386159924040178      -0.03861682815495713     0.09775402006979285      -0.09775318431885352     0.09775318431885352      -0.09775402006979285     0.03861682815495713      0.0386159924040178
0.14256421613463688       -4.866838878526679E-7    -0.022670811744357394    0.007530348076677968     -0.03789201629413603     -0.03789006955858461     0.09813285417200829      -0.09813480090755972     0.09813480090755972      -0.09813285417200829     0.03789006955858461      0.03789201629413603
0.14402242384132713       -1.1544460370053138E-6   -0.02264172614639355     0.00760535750295865      -0.037506057319420076    -0.03750143953527205     0.0983442995589412       -0.09834891734308922     0.09834891734308922      -0.0983442995589412      0.03750143953527205      0.037506057319420076
0.14410725627077656       -1.3126398980232786E-6   -0.022639577195381216    0.007609758280381711     -0.03748232374441286     -0.03747707318482076     0.09835513942787441      -0.09836038998746649     0.09836038998746649      -0.09835513942787441     0.03747707318482076      0.03748232374441286
0.14512766858935125       -3.2154849014406716E-6   -0.02261372840030097     0.007662693313869996     -0.03719684291522582     -0.03718398097562005     0.09848552748657997      -0.09849838942618575     0.09849838942618575      -0.09848552748657997     0.03718398097562005      0.03719684291522582
0.14669432358848045       -6.368579159431273E-6    -0.022582346525192323    0.007742705183393223     -0.036788956000322975    -0.03676348168368524     0.09870512315083098      -0.0987305974674687      0.0987305974674687       -0.09870512315083098     0.03676348168368524      0.036788956000322975
0.14814836847970456       -9.295031122325215E-6    -0.022553220358165052    0.007816965853535791     -0.03641038772259668     -0.03637320759810737     0.09890893442639365      -0.09894611455088295     0.09894611455088295      -0.09890893442639365     0.03637320759810737      0.03641038772259668
0.15057489994436746       -1.0754173931954857E-5   -0.022502532443843308    0.007942723143971245     -0.03575821310350887     -0.03571519640778105     0.09925698155955098      -0.09929999825527878     0.09929999825527878      -0.09925698155955098     0.03571519640778105      0.03575821310350887
0.1531763075087164        -1.0231611987485486E-5   -0.02243916479065788     0.008072902713304603     -0.03504634674273022     -0.035005420294780265    0.09958864200121706      -0.099629568449167       0.099629568449167        -0.09958864200121706     0.035005420294780265     0.03504634674273022
0.1569039489325295        -9.48281599818809E-6     -0.02234836322146857     0.00825944124799308      -0.034026290304429774    -0.03398835904043702     0.10006388902438164      -0.10010182028837436     0.10010182028837436      -0.10006388902438164     0.03398835904043702      0.034026290304429774
0.1581679677487432        -7.850158094169545E-6    -0.022317446023916783    0.008322321232312075     -0.03367875345869041     -0.033647352826313724    0.10022592268481029      -0.10025732331718694     0.10025732331718694      -0.10022592268481029     0.033647352826313724     0.03367875345869041
0.15889520829727946       -5.778675702592489E-6    -0.02229897355807589     0.00835922684527485      -0.03347157064453348     -0.0334484559417231      0.10032227070392187      -0.10034538540673221     0.10034538540673221      -0.10032227070392187     0.0334484559417231       0.03347157064453348
0.16367985215044817       7.84997235856896E-6      -0.022177439946788134    0.008602035383062215     -0.03210847836339844     -0.03213987825283271     0.1009561613173304       -0.10092476142789608     0.10092476142789608      -0.1009561613173304      0.03213987825283271      0.03210847836339844
0.17060558499009018       5.234639866124601E-6     -0.021990834923146782    0.008947800523925012     -0.03017083339400809     -0.03019177195347258     0.10177417614487265      -0.1017532375854081      0.1017532375854081       -0.10177417614487265     0.03019177195347258      0.03017083339400809
0.17145500873430286       4.913875902291424E-6     -0.021967948285509957    0.008990207750332706     -0.02993318610339451     -0.02995284160700367     0.10187450360966528      -0.10185484810605606     0.10185484810605606      -0.10187450360966528     0.02995284160700367      0.02993318610339451
0.17295922317868614       4.166059502131253E-6     -0.021927476100291235    0.009064428597639862     -0.02951638179131002     -0.029533046029318534    0.10204847481043741      -0.10203181057242883     0.10203181057242883      -0.10204847481043741     0.029533046029318534     0.02951638179131002
0.1743536956648609        8.205434905321774E-6     -0.021889520751506984    0.00913195074380455      -0.029124348409492146    -0.029157170149113426    0.10221277609954979      -0.10217995435992845     0.10217995435992845      -0.10221277609954979     0.029157170149113426     0.029124348409492146
0.17669905521880594       9.654596336177019E-6     -0.021826802585334742    0.009246478541111281     -0.02847518439888679     -0.02851380278423149     0.1024856311131217       -0.10244701272777694     0.10244701272777694      -0.1024856311131217      0.02851380278423149      0.02847518439888679
0.17678480435652888       9.707579403488879E-6     -0.021824509534506015    0.00925066581373984      -0.02845145018975176     -0.028490280507365708    0.10249560701728438      -0.10245677669967036     0.10245677669967036      -0.10249560701728438     0.028490280507365708     0.02845145018975176
0.17686850736779408       9.48926896367096E-6      -0.021822142049698196    0.009254684302942786     -0.028428710399396147    -0.028466667475250826    0.10250414189879307      -0.10246618482293833     0.10246618482293833      -0.10250414189879307     0.028466667475250826     0.028428710399396147
0.18056314850144622       -1.4692833276155556E-7   -0.02171764154700347     0.00943205994666126      -0.027424978711030924    -0.027424390997699867    0.10288087057098992      -0.10288145828432092     0.10288145828432092      -0.10288087057098992     0.027424390997699867     0.027424978711030924
0.18815672670071074       -2.734757049055007E-6    -0.021491698665375633    0.009806066879315935     -0.025256297992961318    -0.02524535896476509     0.10369389399929253      -0.10370483302748873     0.10370483302748873      -0.10369389399929253     0.02524535896476509      0.025256297992961318
0.18914720940747567       2.883912366061545E-6     -0.02146331880686278     0.009855242410412846     -0.024963218954204877    -0.024974754603669116    0.10381669388697184      -0.10380515823750758     0.10380515823750758      -0.10381669388697184     0.024974754603669116     0.024963218954204877
0.19120902379552476       1.1274756261263791E-7    -0.021396817861256006    0.00995128527962899      -0.024385086970126865    -0.02438553796037731     0.1039958201974092       -0.10399536920715872     0.10399536920715872      -0.1039958201974092      0.02438553796037731      0.024385086970126865
0.19669140880927988       9.906869390306446E-8     -0.02123147376536407     0.010210201064574135     -0.022853418900407915    -0.022853815175183527    0.10453542369177656      -0.10453502741700091     0.10453502741700091      -0.10453542369177656     0.022853815175183527     0.022853418900407915
0.19887121423553544       -2.2630240810939865E-7   -0.021160856468028       0.010313596064026764     -0.022228637752793205    -0.022227732543160766    0.10473650105537483      -0.10473740626500724     0.10473740626500724      -0.10473650105537483     0.022227732543160766     0.022228637752793205
0.20028472308266798       -4.3729139169309216E-7   -0.02111506422742578     0.010380643216362102     -0.02182349439961236     -0.021821745234045585    0.10486689096494237      -0.1048686401305091      0.1048686401305091       -0.10486689096494237     0.021821745234045585     0.02182349439961236
0.20554462427912795       -1.1473038258386005E-6   -0.020941312418297824    0.010625337152003313     -0.02032488325453193     -0.020320294039228574    0.10532299125525506      -0.10532758047055837     0.10532758047055837      -0.10532299125525506     0.020320294039228574     0.02032488325453193
0.20933969258975993       -3.875119180786689E-6    -0.020815064579591508    0.010795653241250348     -0.019270331012134746    -0.019254830535411598    0.10562005646541435      -0.10563555694213744     0.10563555694213744      -0.10562005646541435     0.019254830535411594     0.019270331012134746
0.20994392441914286       -3.794625269129684E-6    -0.02079529688839579     0.010822468840529875     -0.019103604553606164    -0.019088426052529642    0.10566817677676862      -0.1056833552778451      0.1056833552778451       -0.10566817677676862     0.01908842605252964      0.019103604553606164
0.21044002436357628       -3.86034419229338E-6     -0.020778124044874353    0.010844878975734218     -0.018962576920070803    -0.018947135543301626    0.10570616734917535      -0.10572160872594448     0.10572160872594448      -0.10570616734917535     0.018947135543301623     0.018962576920070803
0.21580252322804122       -1.4816509979246904E-6   -0.020595142495199826    0.011088096107179672     -0.017436006358876686    -0.01743007975488499     0.10613484861232234      -0.10614077521631399     0.10614077521631399      -0.10613484861232234     0.017430079754884982     0.017436006358876686
0.21712243810043047       -4.294224209088588E-7    -0.02054984316995778     0.011148543361918907     -0.017056214907039575    -0.017054497217355937    0.10624284411270717      -0.10624456180239075     0.10624456180239075      -0.10624284411270717     0.017054497217355934     0.017056214907039575
0.2176915556814042        2.4274855263703248E-8    -0.020530311120625817    0.011174606857461937     -0.016892457382319235    -0.01689255448174029     0.10628940934143574      -0.10628931224201466     0.10628931224201466      -0.10628940934143574     0.016892554481740284     0.016892457382319235
0.21881044585081022       -3.904962002253257E-7    -0.020490162825765053    0.011225350340645953     -0.01656986810711185     -0.016568306122310944    0.10637110884747855      -0.1063726708322794      0.1063726708322794       -0.10637110884747855     0.016568306122310944     0.01656986810711185
0.21916240921319732       -5.209685372807536E-7    -0.020477533589009125    0.01124131244975105      -0.01646839290509779     -0.01646630903094867     0.10639680862895706      -0.10639889250310612     0.10639889250310612      -0.10639680862895706     0.016466309030948666     0.01646839290509779
0.23097913612020246       1.2664438373690012E-6    -0.020042935382187967    0.011751924494670515     -0.013118575280207156    -0.01312364105555663     0.10713903701292066      -0.1071339712375712      0.1071339712375712       -0.10713903701292066     0.01312364105555663      0.013118575280207156
0.23098007842793666       1.2665863719742322E-6    -0.02004290072578482     0.011751965212686838     -0.013118308153863213    -0.01312337449935111     0.10713909620084572      -0.10713402985535785     0.10713402985535785      -0.10713909620084572     0.01312337449935111      0.013118308153863213
0.23098032906806742       1.2666130498758622E-6    -0.02004289144487838     0.01175197606064895      -0.013118236865939653    -0.013123303318139155    0.10713911180333065      -0.10713404535113116     0.10713404535113116      -0.10713911180333065     0.013123303318139155     0.013118236865939653
0.2309804117723301        1.266562725200042E-6     -0.020042888472538302    0.011751979588289373     -0.013118213939007074    -0.013123280189907873    0.10713911689622273      -0.10713405064532197     0.10713405064532197      -0.10713911689622273     0.013123280189907872     0.013118213939007074
0.23294256298974397       -3.639219378779923E-7    -0.019969111922862798    0.011836429924640108     -0.012562343913903769    -0.012560888226152256    0.10725232762327302      -0.10725378331102454     0.10725378331102454      -0.10725232762327302     0.012560888226152256     0.012562343913903769
0.2397960868524272        4.813695979747403E-6     -0.01970556759495817     0.012118729080249259     -0.010632159071918005    -0.010651413855836995    0.10760124649783101      -0.10758199171391201     0.10758199171391201      -0.10760124649783101     0.010651413855836995     0.010632159071918005
0.24040197192596782       4.544480350517538E-6     -0.01968281062505061     0.012143536654477692     -0.010465196296540061    -0.010483374217942132    0.10763166745376361      -0.10761348953236152     0.10761348953236152      -0.10763166745376361     0.010483374217942132     0.010465196296540061