% Model:              Cylinder_slice_potential_2.mph
% Version:            COMSOL 6.2.0.339
% Date:               May 15 2024, 11:20
% Dimension:          1
% Nodes:              809
% Expressions:        11
% Description:        Line graph
% Arc length (m)          Magnetic scalar potential Magnetic scalar potential Magnetic scalar potential Magnetic scalar potential Magnetic scalar potential Magnetic scalar potential Magnetic scalar potential Magnetic scalar potential Magnetic scalar potential Magnetic scalar potential Magnetic scalar potential
0                         0.015719524063368837     -0.004847286294578746    -6.719367617497928E-7    0.016894501495954454     -0.04598359475752086     0.045978219263426844     0.016899876990048412     -0.016899876990048412    -0.045978219263426844    0.04598359475752086      -0.016894501495954454
2.8921445166466247E-4     0.015722938117999227     -0.004830411284289991    8.64828092373015E-6      0.016989235506823422     -0.04590251696517345     0.04597170321256328      0.016920049259433544     -0.016920049259433544    -0.04597170321256328     0.04590251696517345      -0.016989235506823422
7.434659054083917E-4      0.015726958332666057     -0.004804177194825989    2.404406732531757E-5     0.01713756135015544      -0.04577027198050876     0.04596262451911129      0.01694520881155286      -0.01694520881155286     -0.04596262451911129     0.04577027198050876      -0.01713756135015544
0.002479870439850307      0.015742325854155276     -0.00470389575042593     8.289542178701947E-5     0.017704546144180856     -0.045264757272440205    0.045927920646736356     0.01704138276988466      -0.01704138276988466     -0.045927920646736356    0.045264757272440205     -0.017704546144180856
0.005872203317684379      0.01578187673031746      -0.004512474864580091    1.9201311671627162E-4    0.01879438133375975      -0.044333125587510055    0.045869230521240215     0.017258276400029537     -0.017258276400029537    -0.045869230521240215    0.044333125587510055     -0.01879438133375975
0.011248344496859741      0.01584845475666944      -0.004209685598071079    3.7145591415187076E-4    0.020553676375733146     -0.04284014265094458     0.04581178996415954      0.017582029062518136     -0.017582029062518136    -0.04581178996415954     0.04284014265094458      -0.020553676375733146
0.012581723502235291      0.01586445535073062      -0.004135626730751441    4.1648679860769976E-4    0.02098797770363775      -0.04246984369928472     0.04580173808814631      0.017656083314776104     -0.017656083314776104    -0.04580173808814631     0.04246984369928472      -0.02098797770363775
0.01503891995920483       0.015893941792978504     -0.0039991485158917895   4.994712533598596E-4     0.021788323051721112     -0.0417874441201929      0.04578321414707177      0.017792553024842186     -0.017792553024842186    -0.04578321414707177     0.0417874441201929       -0.021788323051721112
0.01613215651982968       0.015907521485374793     -0.003939290268003414    5.353885188459712E-4     0.022138726242123263     -0.041491359699375896    0.04577446785014366      0.01785561809135544      -0.01785561809135544     -0.04577446785014366     0.041491359699375896     -0.022138726242123263
0.01633597861830182       0.015909805748075982     -0.003928096836564407    5.421691988367062E-4     0.022203997781805603     -0.0414352252104983      0.04577257880119194      0.0178666441911119       -0.0178666441911119      -0.04577257880119194     0.0414352252104983       -0.022203997781805603
0.017946951788847025      0.015927860149211475     -0.0038396259697165433   5.95762472701563E-4      0.02271989228007961      -0.04099154831676628     0.045757648098378775     0.017953792498467055     -0.017953792498467055    -0.045757648098378775    0.04099154831676628      -0.02271989228007961
0.019609620673921097      0.01594687773330448      -0.003745873767544974    6.507915222224493E-4     0.023259300252863872     -0.040528210680354046    0.04573454285813362      0.018052968075084226     -0.018052968075084226    -0.04573454285813362     0.040528210680354046     -0.023259300252863872
0.02034573560342674       0.01595399664320801      -0.0037066202560339765   6.761638950032359E-4     0.02349278809832707      -0.040323198474504954    0.04573250963453083      0.018083476938301125     -0.018083476938301125    -0.04573250963453083     0.040323198474504954     -0.02349278809832707
0.023120317712986563      0.015986521545235964     -0.0035591337337368047   7.68732994932006E-4      0.024370573868989574     -0.03957551231195426     0.045725376271410316     0.018220709909533474     -0.018220709909533474    -0.045725376271410316    0.03957551231195426      -0.024370573868989574
0.026844723684837674      0.01603228262088652      -0.0033588001414257074   8.949705834971878E-4     0.02556804715148471      -0.03856108333206136     0.045720848000038866     0.018408282483507156     -0.018408282483507156    -0.045720848000038866    0.03856108333206136      -0.02556804715148471
0.03033823569963343       0.016070367641118716     -0.0031685021599102726   0.001016606656079728     0.026701655426825562     -0.03757981513764928     0.045712668386287104     0.018568802178187682     -0.018568802178187682    -0.045712668386287104    0.03757981513764928      -0.026701655426825562
0.03155861675675738       0.016083671799528566     -0.0031020257742940816   0.001059097524356122     0.02709765637359941      -0.037237030824514836    0.0457098110193638       0.018624876178750374     -0.018624876178750374    -0.0457098110193638      0.037237030824514836     -0.02709765637359941
0.0322412560480692        0.01609197505371546      -0.003066474752352555    0.0010825052617310362    0.027314546897297433     -0.03705335331756438     0.04571339541141267      0.01865450480344908      -0.01865450480344908     -0.04571339541141267     0.03705335331756438      -0.027314546897297433
0.03667904600121294       0.01614881857225567      -0.0028312074768157567   0.0012350960279387622    0.028744398825819147     -0.035850875463203515    0.04573164368671359      0.018863630602308997     -0.018863630602308997    -0.04573164368671359     0.035850875463203515     -0.028744398825819147
0.03859786839739244       0.016176034271367965     -0.0027344040394074965   0.0013014652927766266    0.029354717595619986     -0.035349419489851874    0.04576114183206486      0.018942995253406918     -0.018942995253406918    -0.04576114183206486     0.035349419489851874     -0.029354717595619986
0.041654031167013134      0.016210864481947244     -0.0025776251761935685   0.0014080974583002286    0.03032124326851473      -0.03452221465927425     0.04578699432567603      0.019056463602112845     -0.019056463602112845    -0.04578699432567603     0.03452221465927425      -0.03032124326851473
0.045087239035066375      0.01624223304150855      -0.0023963738154692237   0.001528644709563408     0.031409923474863086     -0.033559008691171115    0.04578816636767831      0.01918076579835577      -0.01918076579835577     -0.04578816636767831     0.033559008691171115     -0.031409923474863086
0.04585802637116758       0.01625161218876759      -0.002353735674620888    0.001556740221901247     0.03166897824127751      -0.03333747051379282     0.04579139228900274      0.0192150564660675       -0.0192150564660675      -0.04579139228900274     0.03333747051379282      -0.03166897824127751
0.046476295726444586      0.016259135456285476     -0.002319534469414462    0.001579276391718406     0.03187677307120121      -0.03315976875394069     0.04579397988768787      0.01924256193745392      -0.01924256193745392     -0.04579397988768787     0.03315976875394069      -0.03187677307120121
0.04736202312395789       0.01627035122216591      -0.0022726788938598652   0.001610299057072264     0.03216386199104129      -0.03291754289762233     0.04579993535420038      0.019281469534463143     -0.019281469534463143    -0.04579993535420038     0.03291754289762233      -0.03216386199104129
0.049291335551993117      0.016292497283986525     -0.0021828986131358996   0.001675762323620848     0.03273934802304877      -0.032430641112897354    0.045836739701864075     0.01933324943408195      -0.01933324943408195     -0.045836739701864075    0.032430641112897354     -0.03273934802304877
0.04970138831112908       0.016297062874837027     -0.0021625632307135934   0.0016904458753734964    0.03286821955902729      -0.032320031940320834    0.045843598943308764     0.01934465255603928      -0.01934465255603928     -0.045843598943308764    0.032320031940320834     -0.03286821955902729
0.05348037845269968       0.01633426914713231      -0.0019689034934222776   0.0018259063155423372    0.03406545307616718      -0.031271623512362096    0.045878874036700754     0.019458202551828438     -0.019458202551828438    -0.045878874036700754    0.031271623512362096     -0.03406545307616718
0.05409933739010672       0.016340363144179675     -0.0019371840602610824   0.0018480933144406067    0.03426154736533858      -0.03109990521138018     0.045884651726904986     0.01947680084981368      -0.01947680084981368     -0.045884651726904986    0.03109990521138018      -0.03426154736533858
0.05424980078622095       0.016341699654929237     -0.0019296481512085714   0.0018533425948829138    0.03430782523576447      -0.03105897338395254     0.0458857141430158       0.01948108447670111      -0.01948108447670111     -0.0458857141430158      0.03105897338395254      -0.03430782523576447
0.054472213222809804      0.016344342268774594     -0.0019183026293396197   0.0018613839290969898    0.03437931236591833      -0.03099805670918009     0.04588912814195595      0.019488240933142366     -0.019488240933142366    -0.04588912814195595     0.03099805670918009      -0.03437931236591833
0.055119655549776735      0.016352017266789632     -0.0018851701734251248   0.0018847512985394241    0.03458752920746162      -0.030820539859696943    0.045898550248012274     0.01950951881914619      -0.01950951881914619     -0.045898550248012274    0.030820539859696943     -0.03458752920746162
0.05552848149147189       0.01635686362631899      -0.001864248761701283    0.001899506569270635     0.03471900724461671      -0.030708447260659293    0.04590449981482431      0.01952295469045158      -0.01952295469045158     -0.04590449981482431     0.030708447260659293     -0.03471900724461671
0.05698667216165017       0.01637472218057715      -0.0017902547667431046   0.0019518574926346201    0.035186110031463505     -0.03031277869084514     0.04592763863192204      0.019571250090386506     -0.019571250090386506    -0.04592763863192204     0.03031277869084514      -0.035186110031463505
0.06006890527133819       0.016410998891907815     -0.0016408307181817936   0.002061078629009157     0.03614382014530692      -0.029500175422324377    0.045988804454397576     0.01965519111323361      -0.01965519111323361     -0.045988804454397576    0.029500175422324377     -0.03614382014530692
0.060717229361290655      0.01641862941984744      -0.0016094005158405003   0.002084052457179722     0.03634526712089231      -0.029329250558497492    0.046001670215935216     0.019672847463454483     -0.019672847463454483    -0.046001670215935216    0.029329250558497492     -0.03634526712089231
0.06177629947443544       0.016432466003522633     -0.0015568494384829352   0.002122200632612834     0.036683186222047845     -0.029046677792042737    0.04602428285294535      0.019705581161145114     -0.019705581161145114    -0.04602428285294535     0.029046677792042737     -0.036683186222047845
0.062258335639620986      0.016438194104883848     -0.0015326493655712643   0.0021396156041938548    0.03683690252982936      -0.028915873889706067    0.04603279872325685      0.01971997769627847      -0.01971997769627847     -0.04603279872325685     0.028915873889706067     -0.03683690252982936
0.06254892187733647       0.01644150844197769      -0.001518718864110538    0.0021499785961883178    0.03692677467637708      -0.02883925909153372     0.04603908786104022      0.019726945906870484     -0.019726945906870484    -0.04603908786104022     0.02883925909153372      -0.03692677467637708
0.06459881078012053       0.01646306341977855      -0.0014188443005810412   0.0022237516473332694    0.03756460052714709      -0.02828765315196714     0.046077666330633246     0.019774587348480883     -0.019774587348480883    -0.046077666330633246    0.02828765315196714      -0.03756460052714709
0.06696224549977156       0.016487915392413104     -0.001303693176666464    0.0023088088376101512    0.038299986605267455     -0.02765167496438499     0.04612214566526615      0.019829515904386193     -0.019829515904386193    -0.04612214566526615     0.02765167496438499      -0.038299986605267455
0.06752999911759183       0.01649547540249467      -0.001276320556087462    0.002329158991765716     0.038478625103789854     -0.02750327650618884     0.046136548440314534     0.019845353169664064     -0.019845353169664064    -0.046136548440314534    0.02750327650618884      -0.038478625103789854
0.06794463656476234       0.0165011029839199       -0.0012560034970808464   0.002344478018290198     0.0386121075497581       -0.027392304385921544    0.046148128532243086     0.019856283403436457     -0.019856283403436457    -0.046148128532243086    0.027392304385921544     -0.0386121075497581
0.06880584714738029       0.016510307036160556     -0.0012132402900471525   0.0023766936901701767    0.0388876679628604       -0.02715356018178186     0.04616710970314323      0.019874118441498938     -0.019874118441498938    -0.04616710970314323     0.02715356018178186      -0.0388876679628604
0.06904282117961448       0.016512839658746004     -0.001201473400732769    0.0023855582789485985    0.03896349223108814      -0.027087866403895912    0.046172332635484654     0.01987902599949929      -0.01987902599949929     -0.046172332635484654    0.027087866403895912     -0.03896349223108814
0.07060494423561367       0.016531695849934552     -0.001128015617855792    0.002441758097040442     0.039446377234463544     -0.026680406165274704    0.046214470941598196     0.019912312458139948     -0.019912312458139948    -0.046214470941598196    0.026680406165274704     -0.039446377234463544
0.07250544862817065       0.01655641094978318      -0.0010384762889851496   0.0025096584559441614    0.0400360268563876       -0.026189616942745148    0.0462668845902984       0.019958759208834248     -0.019958759208834248    -0.0462668845902984      0.026189616942745148     -0.0400360268563876
0.07280166259556262       0.016559408499768835     -0.0010243265499594993   0.0025203782557403844    0.04012735037262077      -0.026110283626454622    0.04627330967237765      0.019964324326697622     -0.019964324326697622    -0.04627330967237765     0.026110283626454622     -0.04012735037262077
0.07296544486142335       0.01656140598839544      -0.001016264782128214    0.002526536163317555     0.04018016228367651      -0.02606546166990529     0.046277750976445695     0.01996787297713601      -0.01996787297713601     -0.046277750976445695    0.02606546166990529      -0.04018016228367651
0.07344167706491612       0.016567872999237197     -9.940761552174097E-4    0.0025437601819305396    0.04032855826054438      -0.025942933736404453    0.04629301519184873      0.019978476805099996     -0.019978476805099996    -0.04629301519184873     0.025942933736404453     -0.04032855826054438
0.07516683088616236       0.016588534369555537     -9.102050478865594E-4    0.0026077854447703885    0.04087759537453299      -0.025476542103689177    0.04633882566185225      0.020015311816369827     -0.020015311816369827    -0.04633882566185225     0.025476542103689177     -0.04087759537453299
0.07579281084006716       0.016596031442268816     -8.797720330131474E-4    0.002631017304206713     0.04107681600232509      -0.025307309766750205    0.046355448200403875     0.02002867756867133      -0.02002867756867133     -0.046355448200403875    0.025307309766750205     -0.04107681600232509
0.07673379409854619       0.0166073834603781       -8.339937285435985E-4    0.002665395910955274     0.04137436937894654      -0.02505516446256588     0.046378331750208036     0.020051202091304298     -0.020051202091304298    -0.046378331750208036    0.02505516446256588      -0.04137436937894654
0.0770903956822454        0.016611460086480314     -8.177372411570884E-4    0.002678453594484715     0.04148352282742827      -0.02496231751849301     0.0463899462743707       0.020055894071550492     -0.020055894071550492    -0.0463899462743707      0.02496231751849301      -0.04148352282742827
0.07867466662896154       0.016628191220630695     -7.444810755131626E-4    0.0027358539100373934    0.041966354854871525     -0.02454641002765128     0.0464332413079504       0.020079523574572315     -0.020079523574572315    -0.0464332413079504      0.02454641002765128      -0.041966354854871525
0.07961005669471942       0.016638069667688993     -7.012289476237543E-4    0.0027697443787420267    0.042251430007474874     -0.024300848663281117    0.0464588036932173       0.020093474977538602     -0.020093474977538602    -0.0464588036932173      0.024300848663281117     -0.042251430007474874
0.08181811458110778       0.016665166295502347     -5.963298262193443E-4    0.0028522233405684373    0.04295023647462046      -0.023710428707388962    0.04652821543193643      0.020132449750072903     -0.020132449750072903    -0.04652821543193643     0.023710428707388962     -0.04295023647462046
0.083326165988159         0.01668518975052135      -5.27054469719619E-4     0.0029073581713877413    0.04341864877743484      -0.02332211022465057     0.04658097559575247      0.020159783406332857     -0.020159783406332857    -0.04658097559575247     0.02332211022465057      -0.04341864877743484
0.08529720197361429       0.01670896884425688      -4.339500123002164E-4    0.002980668229796833     0.044038760570800486     -0.02279711480622705     0.0466424606446017       0.020193414732425766     -0.020193414732425766    -0.0466424606446017      0.02279711480622705      -0.044038760570800486
0.08638489690579441       0.01672209108045086      -3.825713224915289E-4    0.003021123594182778     0.04438096257015828      -0.022507401751645173    0.04667639050510737      0.020211973816696007     -0.020211973816696007    -0.04667639050510737     0.022507401751645173     -0.04438096257015828
0.08710528772583534       0.01672973382874736      -3.490142063405493E-4    0.0030483411179282765    0.04460578951018621      -0.022313145804803237    0.046699874748229425     0.020219060566759952     -0.020219060566759952    -0.046699874748229425    0.022313145804803237     -0.04460578951018621
0.08805575420187908       0.016740773656824796     -3.062323742143878E-4    0.0030834972550205925    0.044896839211088835     -0.022066255416210365    0.046734233456375084     0.020228861170924047     -0.020228861170924047    -0.046734233456375084    0.022066255416210365     -0.044896839211088835
0.09179690005016651       0.01678395379502342      -1.3845776196515528E-4   0.0032213304275267984    0.04603785601425859      -0.021097959165835085    0.046868602586049454     0.020267212594044164     -0.020267212594044164    -0.046868602586049454    0.021097959165835085     -0.04603785601425859
0.09222435356750883       0.01678888744441877      -1.1928827458483897E-4   0.0032370788844925135    0.04616822560305311      -0.020987324174621978    0.04688395525056207      0.020271594527112954     -0.020271594527112954    -0.04688395525056207     0.020987324174621978     -0.04616822560305311
0.09263860012982997       0.016793369188855725     -1.0066220526515876E-4   0.0032523161095009503    0.0462940161999198       -0.020879460555503104    0.04689798943151069      0.020275487323912163     -0.020275487323912163    -0.04689798943151069     0.020879460555503104     -0.0462940161999198
0.09385619265908246       0.016809257317894507     -4.530530516829203E-5    0.003297436822186736     0.04667234600903111      -0.020564683262546922    0.04694417784004079      0.02029285143153718      -0.02029285143153718     -0.04694417784004079     0.020564683262546922     -0.04667234600903111
0.09498320683168845       0.01682221336253063      4.884774636544601E-6     0.0033404950949553354    0.04702106142879225      -0.020267792021330253    0.046991752780972916     0.020297100669149533     -0.020297100669149533    -0.046991752780972916    0.020267792021330253     -0.04702106142879225
0.09805446708997904       0.016860230224294927     1.4386712622808218E-4    0.0034566081358352336    0.04797849437061506      -0.019462426526564647    0.04711529161324649      0.020325629283933153     -0.020325629283933153    -0.04711529161324649     0.019462426526564647     -0.04797849437061506
0.09819533188634832       0.016862159501720354     1.5020903835757867E-4    0.0034617288126890747    0.04802186136926977      -0.019426776637611644    0.04712060713912422      0.020328030867757127     -0.020328030867757127    -0.04712060713912422     0.019426776637611644     -0.04802186136926977
0.10247940122456128       0.01691228006471779      3.3997114022480204E-4    0.003621700150473546     0.0493312741520042       -0.018317846106867007    0.04729144731065533      0.020357672948215826     -0.020357672948215826    -0.04729144731065533     0.018317846106867007     -0.0493312741520042
0.10265453603750935       0.016914653854976862     3.47692536005127E-4      0.0036282823908751864    0.04938551488146988      -0.018273100538437618    0.047299359665439064     0.02035925575446839      -0.02035925575446839     -0.047299359665439064    0.018273100538437618     -0.04938551488146988
0.10546445534836119       0.016952739709962524     4.715770952463382E-4     0.0037338899745525747    0.05025577060387439      -0.017555188235975766    0.047426308032396315     0.020384650807453806     -0.020384650807453806    -0.047426308032396315    0.017555188235975766     -0.05025577060387439
0.10554670386645848       0.016953857191339277     4.7517873032071117E-4    0.003736980811878383     0.05028117382115425      -0.017534254944202913    0.04743010143922993      0.02038532732612719      -0.02038532732612719     -0.04743010143922993     0.017534254944202913     -0.05028117382115425
0.10566877536165659       0.01695543999378183      4.804305310393833E-4     0.0037415776925131252    0.05031848235073434      -0.017503277624393042    0.04743589916449799      0.02038586081062935      -0.02038586081062935     -0.04743589916449799     0.017503277624393042     -0.05031848235073434
0.10826058563032881       0.016989441628082292     5.920573063366714E-4     0.0038404583409764907    0.0511168885390806       -0.01684087797324863     0.04756454470106051      0.020393221811268666     -0.020393221811268666    -0.04756454470106051     0.01684087797324863      -0.0511168885390806
0.11198918504620939       0.017037095378030706     7.507923971064339E-4     0.003982735940088857     0.052257511707736175     -0.0158908698043867      0.04775275732509751      0.02039562418702531      -0.02039562418702531     -0.04775275732509751     0.0158908698043867       -0.052257511707736175
0.11526151884150432       0.01707645717335729      8.896163407088749E-4     0.004107087124218636     0.05325011186571578      -0.015055716827713419    0.04791241382146246      0.02039341487196667      -0.02039341487196667     -0.04791241382146246     0.015055716827713419     -0.05325011186571578
0.11803843122773174       0.017110321521816452     0.0010095952543628167    0.004212960351948794     0.054101270214516564     -0.014340015872749277    0.04804369868833959      0.02039758739892618      -0.02039758739892618     -0.04804369868833959     0.014340015872749277     -0.054101270214516564
0.12022582045333194       0.017140434047610505     0.0011044529882266022    0.004297733826279047     0.05478516236501704      -0.013776573825425008    0.04815844443565736      0.02040329175478462      -0.02040329175478462     -0.04815844443565736     0.013776573825425008     -0.05478516236501704
0.12954567875594153       0.01726111019156448      0.001492743922489139     0.004657311340135946     0.0576296975111402       -0.011414743255117737    0.048673233976205287     0.020371206790052568     -0.020371206790052568    -0.048673233976205287    0.011414743255117737     -0.0576296975111402
0.12970478725668105       0.017263170373137647     0.0014993728203108985    0.004663450042814871     0.0576782593784675       -0.011374422114083087    0.048682022456602046     0.02037065903594848      -0.02037065903594848     -0.048682022456602046    0.011374422114083087     -0.0576782593784675
0.1301025745020013        0.01726806950516991      0.001516193164590351     0.0046787857719689475    0.05779986159198669      -0.011272416428692946    0.048702702604444516     0.020369575416235054     -0.020369575416235054    -0.048702702604444516    0.011272416428692946     -0.05779986159198669
0.13198348703490376       0.017298214079344246     0.0015928414408935454    0.004751053685059364     0.05837916722160661      -0.010813689095770369    0.04882211857624527      0.020370737741131642     -0.020370737741131642    -0.04882211857624527     0.010813689095770369     -0.05837916722160661
0.13219105527633512       0.01730154068605275      0.0016012999670837287    0.004759028815943811     0.058443096537131964     -0.010763066207079045    0.048835296734629524     0.020370866009581417     -0.020370866009581417    -0.048835296734629524    0.010763066207079045     -0.058443096537131964
0.1373644257209633        0.017369167243469923     0.0018116905783478708    0.004961436037925226     0.060019150373684396     -0.009457518600195301    0.04914900690359711      0.02032766207028253      -0.02032766207028253     -0.04914900690359711     0.009457518600195301     -0.060019150373684396
0.13744149521693627       0.017370228143906784     0.0018147843040778563    0.004964429434779564     0.060042526939165425     -0.00943838563646171     0.04915382111469821      0.02032709146092885      -0.02032709146092885     -0.04915382111469821     0.00943838563646171      -0.060042526939165425
0.14216671777627088       0.017435273212830102     0.002004464312065103     0.005147958159946295     0.06147577200164073      -0.008265320849679684    0.04944898612925004      0.020292106722070304     -0.020292106722070304    -0.04944898612925004     0.008265320849679684     -0.06147577200164073
0.14415629009933822       0.017463983182715682     0.002082507664697224     0.005226041344050198     0.062079654735723855     -0.007776277995138868    0.04958460874754045      0.02027132398332221      -0.02027132398332221     -0.04958460874754045     0.007776277995138868     -0.062079654735723855
0.14772762368148146       0.017513316132534727     0.0022237422588881023    0.0053662594499654485    0.0631628968415956       -0.006890367688543323    0.0498204432882669       0.020232821241871934     -0.020232821241871934    -0.0498204432882669      0.006890367688543323     -0.0631628968415956
0.1486006682982741        0.017525376015847045     0.002258268325783606     0.005400537027159091     0.06342770511768131      -0.006673798945706877    0.04987809516297961      0.02022340890040851      -0.02022340890040851     -0.04987809516297961     0.006673798945706877     -0.06342770511768131
0.15007197706590433       0.017547112230142718     0.0023166777810196253    0.005458188548213749     0.06387701199619934      -0.006311436924371534    0.04997694531008152      0.020211503610489286     -0.020211503610489286    -0.04997694531008152     0.006311436924371534     -0.06387701199619934
0.1532286703572939        0.0175945884658194       0.002438327575448403     0.0055821165514475446    0.06483262586377424      -0.005545727999503387    0.05020266041108374      0.020175693452193805     -0.020175693452193805    -0.05020266041108374     0.005545727999503387     -0.06483262586377424
0.15437156466475255       0.017611538197236258     0.0024826143582129334    0.005626942198758583     0.0651786882641457       -0.005267464524799355    0.05028300211486802      0.02016315067407696      -0.02016315067407696     -0.05028300211486802     0.005267464524799355     -0.0651786882641457
0.15524563549588244       0.01762412801860321      0.002517044761072326     0.00566133453943376      0.06544472847815849      -0.005051783596254368    0.05034245991172445      0.020154052162688323     -0.020154052162688323    -0.05034245991172445     0.005051783596254368     -0.06544472847815849
0.15584955418785262       0.017632570726643742     0.0025406643650062615    0.005685273716432017     0.06562822941403437      -0.0049020534925405986   0.05038424322399673      0.02014603968257817      -0.02014603968257817     -0.05038424322399673     0.0049020534925405986    -0.06562822941403437
0.15694318575973715       0.017648050188650878     0.0025818850173800253    0.00572852058039271      0.0659558377510127       -0.004636363003590806    0.05046452764673248      0.020127673107870957     -0.020127673107870957    -0.05046452764673248     0.004636363003590806     -0.0659558377510127
0.15898152776197738       0.017679142359187102     0.0026600074951764544    0.0058094609828572286    0.06657615113533251      -0.004140418301415892    0.050616106164273714     0.02010046327247461      -0.02010046327247461     -0.050616106164273714    0.004140418301415892     -0.06657615113533251
0.16175325066535268       0.0177215233328753       0.0027655393494262796    0.005918392823150133     0.06741323600663         -0.0034728573248711966   0.050819999910072244     0.02006609342142887      -0.02006609342142887     -0.050819999910072244    0.0034728573248711966    -0.06741323600663
0.16287560107923435       0.017738684609459526     0.0028082722359463433    0.005962502461919851     0.06775219577443752      -0.003202542663400587    0.05090256235875938      0.020052176079078644     -0.020052176079078644    -0.05090256235875938     0.003202542663400587     -0.06775219577443752