% Model:              Cylinder_slice_potential.mph
% Version:            COMSOL 6.2.0.339
% Date:               May 8 2024, 04:47
% Dimension:          1
% Nodes:              756
% Expressions:        11
% Description:        Line graph
% Arc length (m)          Magnetic scalar potential Magnetic scalar potential Magnetic scalar potential Magnetic scalar potential Magnetic scalar potential Magnetic scalar potential Magnetic scalar potential Magnetic scalar potential Magnetic scalar potential Magnetic scalar potential Magnetic scalar potential
0                         -0.0052225983689615256   -0.004848758346696041    -1.684677689513977E-7    -0.024992145649087       -0.004101752173240897    0.004100404431089276     -0.024990797906935362    0.024990797906935362     -0.004100404431089276    0.004101752173240897     0.024992145649087
0.0020518248755296243     -0.0052227933435588635   -0.00484749593520561     2.0945242521668238E-5    -0.0249042935226479      -0.004013120148412452    0.004180682088585789     -0.025071855462821226    0.025071855462821226     -0.004180682088585789    0.004013120148412452     0.0249042935226479
0.0027321288385787927     -0.005223536833746781    -0.0048474697384913255   2.7662663572728833E-5    -0.024878832228676637    -0.003984684893689519    0.00420598620227134      -0.025100133537258446    0.025100133537258446     -0.00420598620227134     0.003984684893689519     0.024878832228676637
0.003570144424868366      -0.005223354578315119    -0.004846806040363736    3.602599632496811E-5     -0.02484302329242159     -0.003949604979161118    0.004237812949760854     -0.025131231263021313    0.025131231263021313     -0.004237812949760854    0.003949604979161118     0.02484302329242159
0.007555785481885675      -0.005224633303828758    -0.00484717476535251     7.658408480665246E-5     -0.024684454564488457    -0.003785921349173422    0.004398594027626632     -0.025297127242941652    0.025297127242941652     -0.004398594027626632    0.003785921349173422     0.024684454564488457
0.009307956519388172      -0.00522519545826712     -0.0048473368645573535   9.441426744413586E-5     -0.024614744440429777    -0.0037139626073612966   0.0044692767469143736    -0.02537005857998284     0.02537005857998284      -0.0044692767469143736   0.0037139626073612966    0.024614744440429777
0.014879856626096914      -0.0052234475328384825   -0.004846306447332841    1.5094234724410553E-4    -0.02438204501869909     -0.0034882548873451553   0.004695793665297989     -0.02558958379665191     0.02558958379665191      -0.004695793665297989    0.0034882548873451553    0.02438204501869909
0.01971140231536902       -0.005214395139466596    -0.0048410725745287484   2.0048929275753247E-4    -0.024150050831489328    -0.00329247027362294     0.00489638461568319      -0.025753965173549567    0.025753965173549567     -0.00489638461568319     0.00329247027362294      0.024150050831489328
0.020251419561345317      -0.005213383362107431    -0.004840487589565503    2.060271075239555E-4     -0.02412412106281557     -0.0032705876143858444   0.004918804474577479     -0.025772337923007198    0.025772337923007198     -0.004918804474577479    0.0032705876143858444    0.02412412106281557
0.02263990341714092       -0.005210151941724427    -0.004840523974243752    2.2986647490999817E-4    -0.024022409906540136    -0.0031818021396424283   0.005020733938922404     -0.025861341705820107    0.025861341705820107     -0.005020733938922404    0.0031818021396424283    0.024022409906540136
0.024545395590876228      -0.00520966012048919     -0.004840385142163425    2.4912037504790373E-4    -0.02394399416727706     -0.003105353685320303    0.005098316685703524     -0.02593695716766027     0.02593695716766027      -0.005098316685703524    0.003105353685320303     0.02394399416727706
0.02567710012421588       -0.005208373868707466    -0.0048390273854085385   2.60737840562196E-4      -0.02389087853139179     -0.0030573830565619182   0.005143285781059477     -0.025976781255889335    0.025976781255889335     -0.005143285781059477    0.0030573830565619182    0.02389087853139179
0.02936361916004073       -0.00520800761432323     -0.004837682968821042    2.9743202767494646E-4    -0.02373933602440982     -0.0029073055671168966   0.00528676178851646      -0.026118792245809375    0.026118792245809375     -0.00528676178851646     0.0029073055671168966    0.02373933602440982
0.03386173449569774       -0.005207997127698992    -0.004825895720814296    3.435465060163753E-4     -0.023519495393775396    -0.002687506882979419    0.005435878931110413     -0.026267867441906373    0.026267867441906373     -0.005435878931110413    0.002687506882979419     0.023519495393775396
0.03433440160718728       -0.005207624161558916    -0.004825650204905182    3.483867129199531E-4     -0.023498652086153593    -0.002668155439917919    0.0054552491432775345    -0.026285745789513194    0.026285745789513194     -0.0054552491432775345   0.002668155439917919     0.023498652086153593
0.03979755612815157       -0.005196794521484233    -0.004828691172513805    4.0272057035327944E-4    -0.023268780279096783    -0.0024816021931598456   0.005703366755986072     -0.026490544841923       0.026490544841923        -0.005703366755986072    0.0024816021931598456    0.023268780279096783
0.04127863772434071       -0.005193858565609946    -0.004829515590190891    4.1745068204711083E-4    -0.023206461173604143    -0.002431026911164354    0.005770632367541232     -0.02654606662998101     0.02654606662998101      -0.005770632367541232    0.002431026911164354     0.023206461173604143
0.041720272847391236      -0.005193025956667331    -0.004828765177392502    4.2197472667872705E-4    -0.02318444853879728     -0.002412344712127953    0.005788142525557761     -0.026560246352227077    0.026560246352227077     -0.005788142525557761    0.002412344712127953     0.02318444853879728
0.04431542084231467       -0.005192270426189067    -0.004821216419939923    4.4956122934643075E-4    -0.023049945194812207    -0.00228086349005593     0.005877353324827367     -0.026646435029583627    0.026646435029583627     -0.005877353324827367    0.00228086349005593      0.023049945194812207
0.047318463464574356      -0.005180701847080381    -0.0048206019643741395   4.817552663032853E-4     -0.022896188522070062    -0.0021733811337485342   0.006027423264174808     -0.02675023065249632     0.02675023065249632      -0.006027423264174808    0.0021733811337485342    0.022896188522070062
0.050497442625357644      -0.005178439686210112    -0.004813473469588412    5.144038763258807E-4     -0.022739684275881963    -0.0020259255310415072   0.0061411565416485455    -0.026854915286488982    0.026854915286488982     -0.0061411565416485455   0.0020259255310415072    0.022739684275881963
0.05215275110652255       -0.0051791447791546315   -0.004808046109160652    5.309489411593073E-4     -0.022658632121154015    -0.001942053004535482    0.006189644533809934     -0.026906223650428447    0.026906223650428447     -0.006189644533809934    0.001942053004535482     0.022658632121154015
0.05350773354101353       -0.005178300062304061    -0.004807400731770482    5.444709590173029E-4     -0.022600918483850378    -0.0018877182346341299   0.006243485906772545     -0.026956686155988775    0.026956686155988775     -0.006243485906772545    0.0018877182346341299    0.022600918483850378
0.05910109897180816       -0.005162525294559895    -0.00480309570932713     6.008624897038376E-4     -0.02233088775828585     -0.0016807865800462676   0.00648768649767696      -0.027137787675916528    0.027137787675916528     -0.00648768649767696     0.0016807865800462676    0.02233088775828585
0.061815007814547476      -0.005163394891027342    -0.004795476573803572    6.270016198620563E-4     -0.022205213024017192    -0.001551633459907822    0.0065676464188042655    -0.02722122598291362     0.02722122598291362      -0.0065676464188042655   0.001551633459907822     0.022205213024017192
0.06927151027654516       -0.005139381945549794    -0.004772027352022724    7.018937500104319E-4     -0.021787270947126045    -0.0012297431649268692   0.006844893165010317     -0.027402420947209474    0.027402420947209474     -0.006844893165010317    0.0012297431649268692    0.021787270947126045
0.07092095457399589       -0.005136811000685639    -0.0047667402571274385   7.185890060598563E-4     -0.021699486748514178    -0.0011522427457716232   0.0069009547942504666    -0.027448198796993006    0.027448198796993006     -0.0069009547942504666   0.0011522427457716232    0.021699486748514178
0.07148640858004068       -0.005135429638557246    -0.0047662096579961675   7.246198457903372E-4     -0.021671008867941655    -0.001129290313712674    0.006926249080035363     -0.027467967634264328    0.027467967634264328     -0.006926249080035363    0.001129290313712674     0.021671008867941655
0.07162122349090294       -0.005135330055453605    -0.004766124078526053    7.259754419542561E-4     -0.021665130578668354    -0.0011238103568539347   0.0069316138924879755    -0.027472934114302378    0.027472934114302378     -0.0069316138924879755   0.0011238103568539347    0.021665130578668354
0.07455522597940654       -0.005133162809471487    -0.004764261596277779    7.55477538516913E-4      -0.02153720025370868     -0.0010045490158227246   0.007048369323958022     -0.02758102056184396     0.02758102056184396      -0.007048369323958022    0.0010045490158227246    0.02153720025370868
0.0769482803380706        -0.00512813748829328     -0.004755211543858452    7.789797695520668E-4     -0.02140599052995366     -8.93440576780543E-4     0.007125278733197072     -0.02763782868637018     0.02763782868637018      -0.007125278733197072    8.93440576780543E-4      0.02140599052995366
0.079579991146058         -0.005120509656958757    -0.004752260410690007    8.067504107549807E-4     -0.021270798902967625    -7.887602751325972E-4    0.007242763561172438     -0.027724802189007455    0.027724802189007455     -0.007242763561172438    7.887602751325972E-4     0.021270798902967625
0.08054969297448442       -0.0051194092942221745   -0.004751418184666557    8.164017626175824E-4     -0.021227466091973707    -7.498289150850084E-4    0.0072810430160256635    -0.027758680192914352    0.027758680192914352     -0.0072810430160256635   7.498289150850084E-4     0.021227466091973707
0.08198938720144537       -0.0051177756107197      -0.004750167750864938    8.30730904990661E-4      -0.02116313085407159     -6.920284111927903E-4    0.007337875651118076     -0.027808978093996864    0.027808978093996864     -0.007337875651118076    6.920284111927903E-4     0.02116313085407159
0.08454751700985344       -0.005112114786540688    -0.0047449149704762      8.564303829568402E-4     -0.021033252952682626    -5.847938065198814E-4    0.0074362368701746       -0.027884696016337338    0.027884696016337338     -0.0074362368701746      5.847938065198814E-4     0.021033252952682626
0.08546188344708827       -0.0051076995111533924   -0.004739415199563967    8.652855860094334E-4     -0.020972502276960965    -5.417042323474035E-4    0.007463988920422868     -0.027894786965036424    0.027894786965036424     -0.007463988920422868    5.417042323474035E-4     0.020972502276960965
0.08605789087910212       -0.005104821521719338    -0.00473583030820687     8.710576338629152E-4     -0.020932903432607633    -5.136173457302905E-4    0.007482078416633608     -0.027901364503510946    0.027901364503510946     -0.007482078416633608    5.136173457302905E-4     0.020932903432607633
0.08656576876395009       -0.00510433200460787     -0.0047341238936129985   8.761726509565319E-4     -0.02090634508622862     -4.890170677971458E-4    0.0074983982754493975    -0.027915726293880866    0.027915726293880866     -0.0074983982754493975   4.890170677971458E-4     0.02090634508622862
0.08762346865490842       -0.00510331254262524     -0.004730570136728295    8.868251191650815E-4     -0.020851035018775048    -4.3778484827409895E-4   0.007532385801594748     -0.027945635972095692    0.027945635972095692     -0.007532385801594748    4.3778484827409895E-4    0.020851035018775048
0.08773393143161351       -0.0051033169853603386   -0.004730719316692554    8.879672252231333E-4     -0.020846923019905813    -4.336550784644714E-4    0.007537392880249533     -0.02795066082169087     0.02795066082169087      -0.007537392880249533    4.336550784644714E-4     0.020846923019905813
0.08801252814253485       -0.005102672299693566    -0.00473017336200565     8.907778132282529E-4     -0.020832753432491073    -4.220642337168249E-4    0.007548286739542845     -0.027958975938317088    0.027958975938317088     -0.007548286739542845    4.220642337168249E-4     0.020832753432491073
0.09086523819423219       -0.005090621587726177    -0.004725073043347558    9.200637689452413E-4     -0.020676207229714073    -3.137208788093736E-4    0.007674231030371298     -0.028036717381275993    0.028036717381275993     -0.007674231030371298    3.137208788093736E-4     0.020676207229714073
0.0946659449980706        -0.0050724154563523685   -0.00471989284570575     9.581916654569976E-4     -0.020471742787994008    -1.82080962584543E-4     0.007847614286240517     -0.02813727611164997     0.02813727611164997      -0.007847614286240517    1.82080962584543E-4      0.020471742787994008
0.09684223070955392       -0.005069305864475173    -0.004711145379089854    9.792470247658E-4        -0.020355059767156722    -7.783630925603447E-5    0.007911812507382428     -0.028189035965283105    0.028189035965283105     -0.007911812507382428    7.783630925603447E-5     0.020355059767156722
0.09961839944988089       -0.005063749830272707    -0.0047056059085993675   0.0010071525112601632    -0.02021570734130288     3.929197978794096E-5     0.008017928110293357     -0.028272927431384164    0.028272927431384164     -0.008017928110293357    -3.929197978794096E-5    0.02021570734130288
0.10169757984709221       -0.005059588700860002    -0.004701457184392714    0.0010280520119464545    -0.020111340907112345    1.270138963276578E-4     0.008097402199243969     -0.02833575700268396     0.02833575700268396      -0.008097402199243969    -1.270138963276578E-4    0.020111340907112345
0.10588061462220029       -0.005045559128108919    -0.004689174419843772    0.0010714072993200402    -0.019873012318469007    3.0922419396666216E-4    0.00826203420059365      -0.02844427071302931     0.02844427071302931      -0.00826203420059365     -3.0922419396666216E-4   0.019873012318469007
0.10685602336525667       -0.005042055841868049    -0.00468603888500767     0.001081429952597969     -0.01981650852836725     3.51714839104943E-4      0.0082997247816788       -0.028467948149150983    0.028467948149150983     -0.0082997247816788      -3.51714839104943E-4     0.01981650852836725
0.11191638192894199       -0.005026729791927791    -0.004669305783440718    0.0011305988045320298    -0.019538981716049633    5.679374516615301E-4     0.008476852984594701     -0.02858377215230585     0.02858377215230585      -0.008476852984594701    -5.679374516615301E-4    0.019538981716049633
0.11221285118655154       -0.005025831890605051    -0.004668325447731967    0.001133479440923098     -0.019522722360713625    5.806052017065717E-4     0.008487230325678205     -0.028590557888098393    0.028590557888098393     -0.008487230325678205    -5.806052017065717E-4    0.019522722360713625
0.11301159371477831       -0.005022887448214592    -0.004665664194078692    0.0011417588354970338    -0.019475732136677137    6.158176561812229E-4     0.00851825302779504      -0.02860980282065339     0.02860980282065339      -0.00851825302779504     -6.158176561812229E-4    0.019475732136677137
0.11614733810626114       -0.005010791733586402    -0.004654341795110871    0.0011741833072963339    -0.019287875623320093    7.552913110255085E-4     0.008638175147345153     -0.028681342081690743    0.028681342081690743     -0.008638175147345153    -7.552913110255085E-4    0.019287875623320093
0.1161922021230092        -0.005010618676641732    -0.0046541798022206645   0.0011746472137454062    -0.019285187904963846    7.572868016030714E-4     0.008639890908360167     -0.028682365614927072    0.028682365614927072     -0.008639890908360167    -7.572868016030714E-4    0.019285187904963846
0.1214813697809394        -0.004991945713077723    -0.004632589882729286    0.0012253570206690074    -0.018980232991667293    9.875498606435997E-4     0.008815306304708455     -0.028783089157019333    0.028783089157019333     -0.008815306304708455    -9.875498606435997E-4    0.018980232991667293
0.12272812252601088       -0.004987611749323311    -0.004628449385337671    0.0012383022545816634    -0.018907362636333       0.0010430843609602427    0.008863333675693058     -0.02881378067298629     0.02881378067298629      -0.008863333675693058    -0.0010430843609602427   0.018907362636333
0.12478770608710969       -0.004979000304705527    -0.004620191727100337    0.0012595955455959045    -0.018780193608328468    0.0011358076104936454    0.008940956754273586     -0.028856957973095683    0.028856957973095683     -0.008940956754273586    -0.0011358076104936454   0.018780193608328468
0.12851978039215894       -0.0049632088927180915   -0.00460604287439065     0.0012986742167600926    -0.018549849541567784    0.0013029860293045838    0.009086407704776152     -0.0289392432756485      0.0289392432756485       -0.009086407704776152    -0.0013029860293045838   0.018549849541567784
0.13006598398896985       -0.004957178815144083    -0.004598443142324507    0.0013139664612044646    -0.01845382121244385     0.0013748940481324832    0.009136837641503227     -0.02896555290207954     0.02896555290207954      -0.009136837641503227    -0.0013748940481324832   0.01845382121244385
0.1320420506032353        -0.004950134088170303    -0.004592850729578702    0.001333870052098324     -0.01834334015668343     0.0014571961959977757    0.00921376422078881      -0.029014300573469994    0.029014300573469994     -0.00921376422078881     -0.0014571961959977757   0.01834334015668343
0.13385483946495938       -0.004943671450473898    -0.0045877204047897625   0.0013521290559295857    -0.018241987891598754    0.0015326979102968312    0.009284334537139848     -0.029059020339035412    0.029059020339035412     -0.009284334537139848    -0.0015326979102968312   0.018241987891598754
0.1358487318783031        -0.004930873184909252    -0.004575373078163461    0.001369830703479149     -0.018108542790392305    0.001614949949244702     0.009343695678588485     -0.029067188418225465    0.029067188418225465     -0.009343695678588485    -0.001614949949244702    0.018108542790392305
0.13674693673101032       -0.00492510784663951     -0.0045698108780068795   0.0013778049079164222    -0.018048428695633986    0.0016520026909240522    0.009370436572407322     -0.02907086795896533     0.02907086795896533      -0.009370436572407322    -0.0016520026909240522   0.018048428695633986
0.13785979660962003       -0.004920721497931071    -0.004564467708856399    0.0013883186330294695    -0.017981571590313473    0.0017013144014108067    0.009405234662824946     -0.0290881206545492      0.0290881206545492       -0.009405234662824946    -0.0017013144014108067   0.017981571590313473
0.13961948564820797       -0.004913876807228503    -0.004555304288193186    0.0014054057504962328    -0.017872043477051645    0.001783463751862363     0.009459782252107493     -0.029115289481021475    0.029115289481021475     -0.009459782252107493    -0.001783463751862363    0.017872043477051645
0.14172489056847012       -0.004903876750876633    -0.004544659183679294    0.0014260428068813163    -0.017737559825265897    0.0018779471782406324    0.009530395276809892     -0.029145902280316386    0.029145902280316386     -0.009530395276809892    -0.0018779471782406324   0.017737559825265897
0.14422261109892331       -0.004893371410021956    -0.004535006786751678    0.0014506472537719414    -0.017589174165211195    0.0019843114748766275    0.009620866555298894     -0.029194352195386682    0.029194352195386682     -0.009620866555298894    -0.0019843114748766275   0.017589174165211195
0.1464615472648223        -0.0048817776426205856   -0.004527041561496025    0.0014718721165409916    -0.017457191503565294    0.0020699190669170487    0.009705057865410876     -0.029232168435893185    0.029232168435893185     -0.009705057865410876    -0.0020699190669170487   0.017457191503565294
0.1487837775121217        -0.004868831280411599    -0.004514339427202462    0.0014945505028295582    -0.017302478831112366    0.0021728462905340317    0.009783557732102426     -0.029258882853748787    0.029258882853748787     -0.009783557732102426    -0.0021728462905340317   0.017302478831112366
0.1506787086154901        -0.004859297439365284    -0.004506232536992277    0.001513148488596979     -0.0171846985353195      0.0022524912221416377    0.009852696686634186     -0.02928988644409529     0.02928988644409529      -0.009852696686634186    -0.0022524912221416377   0.0171846985353195
0.15262852398851784       -0.004850256973823664    -0.004495014680113676    0.0015317864074040613    -0.017058412358372133    0.0023426155369225257    0.009911675722309955     -0.02931270361760458     0.02931270361760458      -0.009911675722309955    -0.0023426155369225257   0.017058412358372133
0.15273820783687364       -0.004849685506780316    -0.004494461919355869    0.0015328556891647178    -0.017051334014969385    0.0023474080121518763    0.009915437501165856     -0.02931417952828709     0.02931417952828709      -0.009915437501165856    -0.0023474080121518763   0.017051334014969385
0.15812930488919802       -0.004821597193513779    -0.004467293043202035    0.001585412212612722     -0.016703424666182798    0.002582964107872318     0.010100333593029445     -0.029386722367084537    0.029386722367084537     -0.010100333593029445    -0.002582964107872318    0.016703424666182798
0.16059716338093516       -0.004809578239154098    -0.004453277150605528    0.0016075990515357149    -0.01654859172398195     0.0026897212326344446    0.01017107117965126      -0.029409384136267633    0.029409384136267633     -0.01017107117965126     -0.0026897212326344446   0.01654859172398195
0.16194726256223305       -0.0048013906745873304   -0.004445034420105066    0.0016204164135406522    -0.016456218955327277    0.002749343743022046     0.01021398756530316      -0.029419550263652464    0.029419550263652464     -0.01021398756530316     -0.002749343743022046    0.016456218955327277
0.1682825450791837        -0.004766145915735273    -0.004414941738140712    0.0016820026564722242    -0.01604910642000381     0.003015477242937279     0.0104405440088405       -0.029505127671781563    0.029505127671781563     -0.0104405440088405      -0.003015477242937279    0.01604910642000381
0.16925841971757477       -0.004760490660858       -0.004410564005950063    0.0016913245793902432    -0.01598737502200524     0.003054587621426761     0.010476009013695173     -0.02951797165712715     0.02951797165712715      -0.010476009013695173    -0.003054587621426761    0.01598737502200524
0.16985905448174776       -0.004757215814021456    -0.0044072685850245165   0.0016966418712034783    -0.01594966989830257     0.0030791933577832505    0.010493941611844564     -0.02952280486793036     0.02952280486793036      -0.010493941611844564    -0.0030791933577832505   0.01594966989830257
0.17132569423476152       -0.004749219239660462    -0.004399221772517794    0.0017096257209851396    -0.015857600912933766    0.003139276045708073     0.010537729722173032     -0.02953460668081485     0.02953460668081485      -0.010537729722173032    -0.003139276045708073    0.015857600912933766
0.17297431350505707       -0.00473906740495246     -0.004390749152371419    0.0017246216735582716    -0.01575189557278611     0.003204374047023726     0.010592599341442438     -0.02954886896125225     0.02954886896125225      -0.010592599341442438    -0.003204374047023726    0.01575189557278611
0.17325297984898042       -0.004737351438923697    -0.004389317024212915    0.001727156441501663     -0.015734028184479505    0.0032153775712152736    0.010601873960798019     -0.029551279716492778    0.029551279716492778     -0.010601873960798019    -0.0032153775712152736   0.015734028184479505
0.17390622471466877       -0.0047330839320442394   -0.004386449028447051    0.0017331414243812444    -0.015692949251904672    0.003239386476272278     0.010625744918777666     -0.029558080646954595    0.029558080646954595     -0.010625744918777666    -0.003239386476272278    0.015692949251904672
0.17432077826134568       -0.004731877465636995    -0.00438449867227856     0.0017368720318091241    -0.015669762820873193    0.003257747041674782     0.010637229212798199     -0.029564739075346153    0.029564739075346153     -0.010637229212798199    -0.003257747041674782    0.015669762820873193
0.17684978554321884       -0.004719509208928062    -0.004370396424616654    0.0017601670795578332    -0.015509539373474773    0.00336849746223747      0.010712839174225183     -0.029590876009937407    0.029590876009937407     -0.010712839174225183    -0.00336849746223747     0.015509539373474773
0.18002345902121783       -0.004703988174818128    -0.004352699390011196    0.0017894002398332906    -0.015308473560336704    0.0035074791389358073    0.010807722779730506     -0.029623675479002996    0.029623675479002996     -0.010807722779730506    -0.0035074791389358073   0.015308473560336704
0.1819601735497552        -0.004686021277201085    -0.0043407206811553025   0.0018092576141639084    -0.015157174141212463    0.003586910967591874     0.01088714994571938      -0.029631235054523704    0.029631235054523704     -0.01088714994571938     -0.003586910967591874    0.015157174141212463
0.18818711478946865       -0.004642964962010334    -0.004312163295720795    0.001866453802028588     -0.014756604603068718    0.003815255244972611     0.011116375171256078     -0.029688235019297394    0.029688235019297394     -0.011116375171256078    -0.003815255244972611    0.014756604603068718
0.1882297078462766        -0.004642670451429896    -0.004311967959633097    0.0018668450311064184    -0.014753864657333422    0.003816817148386155     0.01111794310046518      -0.029688624906184742    0.029688624906184742     -0.01111794310046518     -0.003816817148386155    0.014753864657333422
0.18847796168164124       -0.004641429298976128    -0.004310381891477754    0.0018689311968930896    -0.01473827948481317     0.003827437711091333     0.011124011864053372     -0.029689729059957863    0.029689729059957863     -0.011124011864053372    -0.003827437711091333    0.01473827948481317
0.18866301905813562       -0.004639692355941107    -0.004309086903476342    0.0018706791265079277    -0.01472392891627954     0.0038348405074848844    0.011130592504578528     -0.029689361928342938    0.029689361928342938     -0.011130592504578528    -0.0038348405074848844   0.01472392891627954
0.1892530039060954        -0.004635405828258711    -0.004305201617518406    0.001876129737304038     -0.014681897559856502    0.003859725753178339     0.011149312145253953     -0.02969093545828878     0.02969093545828878      -0.011149312145253953    -0.003859725753178339    0.014681897559856502
0.19434796868034593       -0.004602450779408232    -0.00427306069586062     0.0019241672408170888    -0.014327414683129983    0.004082388434502939     0.011310949492033762     -0.029720752609666667    0.029720752609666667     -0.011310949492033762    -0.004082388434502939    0.014327414683129983
0.19613919292448673       -0.004590742930470704    -0.0042616820039942495   0.0019420735516113784    -0.014198237666478656    0.004164734055404156     0.01137185435748686      -0.029734826079369663    0.029734826079369663     -0.01137185435748686     -0.004164734055404156    0.014198237666478656
0.1988901286552463        -0.004568702752677126    -0.00424087280114594     0.0019653275869206954    -0.013998713561109303    0.004276097449599196     0.011446523245766359     -0.029721334256474843    0.029721334256474843     -0.011446523245766359    -0.004276097449599196    0.013998713561109303
0.1998727514794223        -0.004560830092655772    -0.004233439840265385    0.0019736338318080745    -0.013927444378875418    0.004315875991747667     0.011473194662716919     -0.02971651503333999     0.02971651503333999      -0.011473194662716919    -0.004315875991747667    0.013927444378875418
0.20417064109637567       -0.004535389600134688    -0.004206272128103542    0.002011160557773814     -0.01364495335348476     0.004496605047053988     0.01159267941513651      -0.029734237815675246    0.029734237815675246     -0.01159267941513651     -0.004496605047053988    0.01364495335348476
0.20684413536100227       -0.004513726824155606    -0.004188889554976184    0.002034175730348824     -0.013457419391844479    0.004597487904777934     0.011675917938012648     -0.029730825234635046    0.029730825234635046     -0.011675917938012648    -0.004597487904777934    0.013457419391844479
0.2078830793065048        -0.0045088035072506395   -0.00418421097822719     0.002043584440438855     -0.01339590218742744     0.004639311841575109     0.011709363681935718     -0.029744577710938257    0.029744577710938257     -0.011709363681935718    -0.004639311841575109    0.01339590218742744
0.2083704069662819        -0.004506494173319752    -0.004182016442258195    0.002047997695542313     -0.013367046891244846    0.004658929802034154     0.011725051762304338     -0.02975102845558333     0.02975102845558333      -0.011725051762304338    -0.004658929802034154    0.013367046891244846
0.20939852434627904       -0.004500292447143601    -0.004174217781253978    0.0020571039238084557    -0.013294822542815322    0.004706347245759071     0.011750484144708565     -0.029751653933282954    0.029751653933282954     -0.011750484144708565    -0.004706347245759071    0.013294822542815322