% Model:              Cylinder_slice_potential_3.mph
% Version:            COMSOL 6.2.0.339
% Date:               May 16 2024, 16:03
% Dimension:          1
% Nodes:              795
% Expressions:        11
% Description:        Line graph
% Arc length (m)          Magnetic scalar potential Magnetic scalar potential Magnetic scalar potential Magnetic scalar potential Magnetic scalar potential Magnetic scalar potential Magnetic scalar potential Magnetic scalar potential Magnetic scalar potential Magnetic scalar potential Magnetic scalar potential
0                         0.001922676489180872     -0.014594233031966292    -2.18013931855428E-7     -0.03993821817326456     -0.047628924129987996    0.04762718001853321      -0.03993647406180968     0.03993647406180968      -0.04762718001853321     0.047628924129987996     0.03993821817326456
1.8105177693137148E-4     0.0019107444928957392    -0.014596524520923132    -6.446179889625056E-6    -0.03999386929653642     -0.04763684726811933     0.04758527782900238      -0.039942299857419386    0.039942299857419386     -0.04758527782900238     0.04763684726811933      0.03999386929653642
0.00723390825256187       0.0014428205571150195    -0.014674329021195712    -2.4636521379697065E-4   -0.042122806804545006    -0.04789408903300503     0.04592316732262932      -0.0401518850941692      0.0401518850941692       -0.04592316732262932     0.04789408903300503      0.042122806804545006
0.00828712911168061       0.0013723147536270487    -0.01468694706015258     -2.811298089786066E-4    -0.04244073090911809     -0.04792998992362623     0.04568095145179744      -0.0401916924372892      0.0401916924372892       -0.04568095145179744     0.04792998992362623      0.04244073090911809
0.009320875573314735      0.001303112625460554     -0.014699331787450268    -3.1525159544723867E-4   -0.042752776493218674    -0.04796522699506084     0.04544321423148298      -0.040230763729640726    0.040230763729640726     -0.04544321423148298     0.04796522699506084      0.042752776493218674
0.009538276528795686      0.0012884145058386356    -0.014702272502515828    -3.225666440962628E-4    -0.042820255072255294    -0.04797391309560979     0.045393379942839734     -0.040239721919485154    0.040239721919485154     -0.045393379942839734    0.04797391309560979      0.042820255072255294
0.009753146238206249      0.001273493981245276     -0.014704905153458545    -3.2975421141775497E-4   -0.04288674434355613     -0.04798072026853718     0.045342686577195195     -0.040248710652214054    0.040248710652214054     -0.045342686577195195    0.04798072026853718      0.04288674434355613
0.010438738272567295      0.0012254250543051075    -0.01471437783267611     -3.5313166399068217E-4   -0.04310481004538087     -0.04800651026260125     0.045181456950675845     -0.04027975673345538     0.04027975673345538      -0.045181456950675845    0.04800651026260125      0.04310481004538087
0.012844756045875878      0.00105673188582379      -0.014747621268153823    -4.351725331462897E-4    -0.04387009016539907     -0.04809701770869417     0.04461563744352391      -0.04038870990022872     0.04038870990022872      -0.04461563744352391     0.04809701770869417      0.04387009016539907
0.01598106069166681       8.420175855164855E-4     -0.014780966021207119    -5.410518456262173E-4    -0.044823070275093274    -0.048191140617159164    0.04386272585214948      -0.04049465551008351     0.04049465551008351      -0.04386272585214948     0.048191140617159164     0.044823070275093274
0.019146447429502545      6.324909393460156E-4     -0.014810691927313168    -6.448333823600608E-4    -0.04574642743268773     -0.04827639119007174     0.043117724131191304     -0.04058776037380722     0.04058776037380722      -0.043117724131191304    0.04827639119007174      0.04574642743268773
0.019669291017317903      5.978823203999494E-4     -0.014815601911680567    -6.619755250140148E-4    -0.045898943194297874    -0.048290472475897614    0.042994668275785554     -0.04060313899418574     0.04060313899418574      -0.042994668275785554    0.048290472475897614     0.045898943194297874
0.019825181936694143      5.867639596284385E-4     -0.01481736859672044     -6.67149319021388E-4     -0.04594717514698999     -0.0482942309855037      0.04295703643333265      -0.04060998059481887     0.04060998059481887      -0.04295703643333265     0.0482942309855037       0.04594717514698999
0.022329640286409318      4.100082125542239E-4     -0.014845924262216446    -7.509063031392105E-4    -0.046721381574097734    -0.04836141442431459     0.04235416399920095      -0.040714131148984034    0.040714131148984034     -0.04235416399920095     0.04836141442431459      0.046721381574097734
0.028046096093783293      6.56112909043556E-6      -0.014911102906483637    -9.420826101130954E-4    -0.04848851690172243     -0.048514761418084126    0.0409781005371794       -0.040951856020817655    0.040951856020817655     -0.0409781005371794      0.048514761418084126     0.04848851690172243
0.029717386366716156      -1.1151579864994807E-4   -0.014925549716297042    -9.98123935281541E-4     -0.0489921764873172      -0.048546113292717366    0.04056112181046508      -0.04100718500506486     0.04100718500506486      -0.04056112181046508     0.048546113292717366     0.0489921764873172
0.031605415740612805      -2.4678548929745673E-4   -0.014945007794075755    -0.0010604620426676015   -0.04957044253149259     -0.04858330057430272     0.04009960423296196      -0.04108674619015176     0.04108674619015176      -0.04009960423296196     0.04858330057430272      0.04957044253149259
0.03411257627836924       -4.2783554410466096E-4   -0.014974748149524843    -0.0011434217061672425   -0.050353602361452844    -0.04864226018503415     0.03949488653569627      -0.04120622871211488     0.04120622871211488      -0.03949488653569627     0.04864226018503415      0.050353602361452844
0.03628692729878365       -5.8030033974076E-4      -0.014994173007778291    -0.0012136325906573378   -0.05099765006544576     -0.048676448706482675    0.038967387981224025     -0.04128858934018703     0.04128858934018703      -0.038967387981224025    0.048676448706482675     0.05099765006544576
0.03736772539381948       -6.560855552539927E-4    -0.015003828463405996    -0.00124853210296939     -0.05131778491260354     -0.04869344269158753     0.03870518586783247      -0.041329528088848405    0.041329528088848405     -0.03870518586783247     0.04869344269158753      0.05131778491260354
0.038003038620910055      -7.021668632897442E-4    -0.015010365963500106    -0.0012698985046809574   -0.05151502563580364     -0.04870635818264462     0.03854717014519702      -0.04135583759835597     0.04135583759835597      -0.03854717014519702     0.04870635818264462      0.05151502563580364
0.03914803148783598       -7.852168719306477E-4    -0.015022148168963637    -0.0013084060888275267   -0.05187050260606232     -0.048729635118339706    0.03826238640771954      -0.041403253895442096    0.041403253895442096     -0.03826238640771954     0.048729635118339706     0.05187050260606232
0.040453680241328005      -8.772372574419958E-4    -0.015036659159994338    -0.0013483887770533829   -0.05225800710308053     -0.04874905807331253     0.03796194785688552      -0.04147089688665347     0.04147089688665347      -0.03796194785688552     0.04874905807331253      0.05225800710308053
0.04177715691842612       -9.709085640885965E-4    -0.01505027648794335     -0.0013889135125852669   -0.05264830064234831     -0.04876466638599389     0.037653358285311814     -0.041536992541666165    0.041536992541666165     -0.037653358285311814    0.04876466638599389      0.05264830064234831
0.04208072443566421       -9.932198786866834E-4    -0.01505368457389331     -0.0013986044471233489   -0.05274191126754669     -0.04876903175279993     0.037580196175813194     -0.041553075690559896    0.041553075690559896     -0.037580196175813194    0.04876903175279993      0.05274191126754669
0.04274299682464931       -0.001041894940349107    -0.015061119760781826    -0.0014197464929733992   -0.05294613513493728     -0.048778555373540824    0.03742058342975369      -0.041588163191150086    0.041588163191150086     -0.03742058342975369     0.048778555373540824     0.05294613513493728
0.04320310182432122       -0.0010766876553440035   -0.015066450238291777    -0.0014353687624702241   -0.05309420107544422     -0.04878745045406818     0.03730450035430645      -0.041611250975682426    0.041611250975682426     -0.03730450035430645     0.04878745045406818      0.05309420107544422
0.04489012914354735       -0.0012042591026186372   -0.01508599504043524     -0.0014926495906469458   -0.05363710168913078     -0.0488200652786562      0.03687886855348069      -0.04169590496395521     0.04169590496395521      -0.03687886855348069     0.0488200652786562       0.05363710168913078
0.05041407780834804       -0.0016130033446284493   -0.015137748084332235    -0.0016731092370982168   -0.055331687890646464    -0.04887967451213265     0.03549480061534696      -0.04194681399386073     0.04194681399386073      -0.03549480061534696     0.04887967451213265      0.055331687890646464
0.05248352455252618       -0.001766131929298103    -0.015157136419505661    -0.0017407151564261415   -0.055966533742817744    -0.04890200602562531     0.03497628477421623      -0.04204081249140862     0.04204081249140862      -0.03497628477421623     0.04890200602562531      0.055966533742817744
0.05355606457660558       -0.0018456191688139127   -0.015167595224046704    -0.0017748330300301708   -0.05629335612988861     -0.04891087945463294     0.03471221521439162      -0.04209469188964725     0.04209469188964725      -0.03471221521439162     0.04891087945463294      0.05629335612988861
0.053961716697936715      -0.0018766948851250459   -0.015171150281226703    -0.001787895623460502    -0.0564184231077722      -0.048911643567272       0.034608478579588035     -0.04211525812008819     0.04211525812008819      -0.034608478579588035    0.048911643567272        0.0564184231077722
0.05570342328620308       -0.002010121476502388    -0.015186414262817027    -0.0018439811308228137   -0.0569554102647471      -0.04891492435873753     0.034163075312155074     -0.04220356121816459     0.04220356121816459      -0.034163075312155074    0.04891492435873753      0.0569554102647471
0.06273772030283016       -0.0025440233827072846   -0.015249441161759865    -0.002070038680237686    -0.0591165249716449      -0.04894043144081575     0.03238012199891431      -0.0425562155297434      0.0425562155297434       -0.03238012199891431     0.04894043144081575      0.0591165249716449
0.06314210417907397       -0.002574570919526717    -0.015252887892864258    -0.0020829858423317762   -0.059239748886973316    -0.04894146520886643     0.032277578470212266     -0.04257586214831909     0.04257586214831909      -0.032277578470212266    0.04894146520886643      0.059239748886973316
0.0641262060105052        -0.002648910893733778    -0.015261275799978146    -0.0021144938392553456   -0.05953962454442339     -0.04894398096948825     0.03202803025544553      -0.0426236738303806      0.0426236738303806       -0.03202803025544553     0.04894398096948825      0.05953962454442339
0.06459687746239777       -0.002685283409678166    -0.015264687218824296    -0.002129845728222912    -0.05968401138872088     -0.04894287775000819     0.03190411192422494      -0.042645245562937556    0.042645245562937556     -0.03190411192422494     0.04894287775000819      0.05968401138872088
0.06781976833772466       -0.0029366346999277655   -0.01529648503870122     -0.0022331663099101353   -0.06069538975559974     -0.04894885095588865     0.031083520476607614     -0.04283005927631863     0.04283005927631863      -0.031083520476607614    0.04894885095588865      0.06069538975559974
0.07244161940947125       -0.0032961807100749096   -0.015334115036200816    -0.002378664241641253    -0.06210936349531728     -0.048924640655017615    0.029895326721887633     -0.04308004956218722     0.04308004956218722      -0.029895326721887633    0.048924640655017615     0.06210936349531728
0.07441056243572927       -0.003449349991886188    -0.015350145695779582    -0.0024406474456800387   -0.06271172685383128     -0.0489143268862865      0.02938914732084623      -0.04318654728839093     0.04318654728839093      -0.02938914732084623     0.0489143268862865       0.06271172685383128
0.07836744403993674       -0.003764039349935077    -0.015377314944918966    -0.002567585921674367    -0.06393036722132452     -0.048874209821584184    0.02833352244818929      -0.04338967984792955     0.04338967984792955      -0.02833352244818929     0.048874209821584184     0.06393036722132452
0.07847121446588805       -0.0037723660025636365   -0.015378299164526769    -0.0025708569515156005   -0.06396305730476998     -0.04887359329451541     0.02830673768239065      -0.043396201692645145    0.043396201692645145     -0.02830673768239065     0.04887359329451541      0.06396305730476998
0.08236163709700846       -0.004084537775307703    -0.015415198215495148    -0.002693490046684512    -0.06518863038383887     -0.04885047928260805     0.027302558909132003     -0.04364071001036277     0.04364071001036277      -0.027302558909132003    0.04885047928260805      0.06518863038383887
0.08665336125516733       -0.004437152909475742    -0.015455292576988045    -0.002825905150844493    -0.06654380415329358     -0.04879519251539059     0.02618795130863469      -0.043936562946537625    0.043936562946537625     -0.02618795130863469     0.04879519251539059      0.06654380415329358
0.08682981540823445       -0.004451650673676172    -0.015456941055860235    -0.0028313493952080142   -0.0665995220957651      -0.04879291940106038     0.026142124239396318     -0.04394872693410097     0.04394872693410097      -0.026142124239396318    0.04879291940106038      0.0665995220957651
0.08789720276146296       -0.004539499681738659    -0.015469645724182794    -0.002865115260919423    -0.06694839757970339     -0.048790398852748725    0.02586947676539339      -0.04402747549234799     0.04402747549234799      -0.02586947676539339     0.048790398852748725     0.06694839757970339
0.09033114476426234       -0.004736617671178313    -0.015480801123153856    -0.0029413015237435866   -0.06768084480679251     -0.048734374122079246    0.025203961932130606     -0.044150432616843815    0.044150432616843815     -0.025203961932130606    0.048734374122079246     0.06768084480679251
0.09215263537667698       -0.004883891575937669    -0.015493443550792428    -0.002998463036894643    -0.06824196595183118     -0.04870639964808048     0.024718695352923384     -0.044254261656674024    0.044254261656674024     -0.024718695352923384    0.04870639964808048      0.06824196595183118
0.0948119473305347        -0.005098906274750018    -0.015511901048577973    -0.0030819168269867526   -0.06906118300318095     -0.04866555790418086     0.024010223288286885     -0.044405848387286916    0.044405848387286916     -0.024010223288286885    0.04866555790418086      0.06906118300318095
0.09938182378780475       -0.005490670115538171    -0.015532957465229478    -0.0032259293821241325   -0.0704839301552613      -0.04852124969310859     0.022713814636115586     -0.044676495098268224    0.044676495098268224     -0.022713814636115586    0.04852124969310859      0.0704839301552613
0.1001981207685656        -0.005560327481116784    -0.01553914030959394     -0.0032508828609258394   -0.07074160733471875     -0.04850029741025158     0.02249323452284492      -0.044734544447312015    0.044734544447312015     -0.02249323452284492     0.04850029741025158      0.07074160733471875
0.10034535000797055       -0.005572891047067419    -0.015540255461915455    -0.0032553835289315684   -0.07078808259560748     -0.04849651840733776     0.022453450175885275     -0.04474501436415491     0.04474501436415491      -0.022453450175885275    0.04849651840733776      0.07078808259560748
0.10472607741903688       -0.0059362439763627735   -0.015572078507015717    -0.0033900515641295775   -0.07214892973029101     -0.04840395382483989     0.021283541311803322     -0.04502851721725438     0.04502851721725438      -0.021283541311803322    0.04840395382483989      0.07214892973029101
0.10996616336217864       -0.006396414983966176    -0.015597918839534368    -0.0035518274004130873   -0.0737938960881878      -0.04820823615232307     0.019793616949018433     -0.0453792768848831      0.0453792768848831       -0.019793616949018433    0.04820823615232307      0.0737938960881878
0.11253451915789137       -0.0066183643863197816   -0.01561057395575494     -0.0036308029159234025   -0.074591662303598       -0.04811820475831884     0.019071781430931682     -0.04554523897621077     0.04554523897621077      -0.019071781430931682    0.04811820475831884      0.074591662303598
0.11330519401345149       -0.0066849637351662486   -0.015614371318986962    -0.003654500740076231    -0.07483104438759831     -0.04809118944693329     0.018855183526323496     -0.04559503846698845     0.04559503846698845      -0.018855183526323496    0.04809118944693329      0.07483104438759831
0.11464020750753909       -0.006798768942882622    -0.015616566932925843    -0.0036965053199403976   -0.07523325996430436     -0.04803818419277384     0.01846614163325072      -0.04566121740478117     0.04566121740478117      -0.01846614163325072     0.04803818419277384      0.07523325996430436
0.11656772591697719       -0.006964091760564276    -0.01562207575719546     -0.003755902440051317    -0.07581802055292021     -0.04796165351066307     0.01791443399025258      -0.045770801032509655    0.045770801032509655     -0.01791443399025258     0.04796165351066307      0.07581802055292021
0.11661542463985641       -0.006968182869228972    -0.01562221207956776     -0.003757372292042418    -0.0758324911453309      -0.047959759668414974    0.017900781332075687     -0.045773512808991536    0.045773512808991536     -0.017900781332075687    0.047959759668414974     0.0758324911453309
0.11661956035773355       -0.006968539188545111    -0.015622216850683594    -0.003757495632094895    -0.07583371145752059     -0.0479595547033401      0.017899589646580998     -0.045773746400761414    0.045773746400761414     -0.017899589646580998    0.0479595547033401       0.07583371145752059
0.11662918404124359       -0.00696941183110125     -0.015622241563664534    -0.0037577959266991093   -0.07583673205999254     -0.0479590847355875      0.017896717321994684     -0.045774364646399654    0.045774364646399654     -0.017896717321994684    0.0479590847355875       0.07583673205999254
0.11747610657799182       -0.007045970877208154    -0.015623351084017014    -0.0037840855833901734   -0.07609833734002802     -0.047914453831195386    0.017641769164074058     -0.04582565267290664     0.04582565267290664      -0.017641769164074058    0.047914453831195386     0.07609833734002802
0.11969754801490183       -0.007246781966785694    -0.0156262613082455      -0.0038530422236986296   -0.0767845167531024      -0.04779738888595959     0.01697305109637061      -0.04596017896351335     0.04596017896351335      -0.01697305109637061     0.04779738888595959      0.0767845167531024
0.12491304099131342       -0.0077139412124565005   -0.01565647292203271     -0.004013253377141336    -0.07845031469957649     -0.04759454984975042     0.015488522832619794     -0.046344287682445764    0.046344287682445764     -0.015488522832619794    0.04759454984975042      0.07845031469957649
0.12596915830174982       -0.007807767590536073    -0.01565751362177693     -0.004045972300106066    -0.07877196524682722     -0.047540894884682876    0.015173116483834412     -0.04640418684597866     0.04640418684597866      -0.015173116483834412    0.047540894884682876     0.07877196524682722
0.13094951256058263       -0.008257401883437154    -0.01566834846568336     -0.004196719295575774    -0.08030672634622751     -0.04727711881247883     0.013703364447872691     -0.04673297198162128     0.04673297198162128      -0.013703364447872691    0.04727711881247883      0.08030672634622751
0.13272688528628204       -0.008426705095696891    -0.01567437645487809     -0.0042502500050989244   -0.0808775395764238      -0.04717071919363616     0.013168719152844826     -0.046875539535632366    0.046875539535632366     -0.013168719152844826    0.04717071919363616      0.0808775395764238
0.13309964488490003       -0.008462212221767951    -0.015675640675263728    -0.004261476736277514    -0.08099725341443718     -0.04714840452736531     0.013056590637145258     -0.04690543952421703     0.04690543952421703      -0.013056590637145258    0.04714840452736531      0.08099725341443718
0.13547745996298718       -0.008688538981141258    -0.015676840264221573    -0.004333945907498653    -0.08174338238494189     -0.04698922646037679     0.012317659200387614     -0.04707181512495261     0.04707181512495261      -0.012317659200387614    0.04698922646037679      0.08174338238494189
0.1391185073142462        -0.009035103545950943    -0.01567867714390065     -0.00444491487491513     -0.0828858980232644      -0.046745483839460554    0.01118616484013958      -0.04732657902394333     0.04732657902394333      -0.01118616484013958     0.046745483839460554     0.0828858980232644
0.13965246163899264       -0.00908556021284931     -0.015680276034375006    -0.00446109356281022     -0.08305632278006457     -0.046714081928667245    0.011025333426185556     -0.04736757427758278     0.04736757427758278      -0.011025333426185556    0.046714081928667245     0.08305632278006457
0.14041011691566338       -0.00915706430803642     -0.015683062293718075    -0.004484101205656308    -0.08329972031985235     -0.04667146308770659     0.010798653442456181     -0.047426910674601835    0.047426910674601835     -0.010798653442456181    0.04667146308770659      0.08329972031985235
0.14157916303632465       -0.009267393619616225    -0.015687361433150568    -0.004519601513570708    -0.08367527759296703     -0.04660570311450206     0.010448891005936455     -0.04751846548440132     0.04751846548440132      -0.010448891005936455    0.04660570311450206      0.08367527759296703
0.14207038776632544       -0.009314858381858828    -0.015687717572855277    -0.004534254815163795    -0.0838298887429387      -0.046570455215503334    0.010296416694193027     -0.04755585022162831     0.04755585022162831      -0.010296416694193027    0.046570455215503334     0.0838298887429387
0.14323544138493322       -0.009427432097369893    -0.015688562240939685    -0.0045690085256407725   -0.08419658502012196     -0.04648685663064234     0.009934788425516206     -0.04764451681499575     0.04764451681499575      -0.009934788425516206    0.04648685663064234      0.08419658502012196
0.14746403432402602       -0.009840467491866102    -0.015687737304035436    -0.004696300223146083    -0.08552934778842289     -0.04616747782095841     0.008597076035789809     -0.04795894600325419     0.04795894600325419      -0.008597076035789809    0.04616747782095841      0.08552934778842289
0.1513125564583866        -0.01021329910483161     -0.01568612025399167     -0.004813419234306476    -0.08673863590886417     -0.04588543948953766     0.007378085615085912     -0.04823128203441233     0.04823128203441233      -0.007378085615085912    0.04588543948953766      0.08673863590886417
0.1519638225704491        -0.010277409461352839    -0.01568312762031615     -0.004833817955097365    -0.08693947360404361     -0.0458298357586322      0.007159292117853346     -0.04826892996326468     0.04826892996326468      -0.007159292117853346    0.0458298357586322       0.08693947360404361
0.15365275427795275       -0.01044480570683226     -0.01568322473038982     -0.0048847158348668505   -0.08747814894430142     -0.0456989261169723      0.0066211994380375614    -0.04840042226536658     0.04840042226536658      -0.0066211994380375614   0.0456989261169723       0.08747814894430142
0.1548177252857451        -0.010559148653824804    -0.015684046488050347    -0.0049182219340102645   -0.08784332450784174     -0.04560672989254245     0.0062609544204603965    -0.04849754903575959     0.04849754903575959      -0.0062609544204603965   0.04560672989254245      0.08784332450784174
0.1565229929777661        -0.01072912107866096     -0.01567693669644659     -0.0049690791570507955   -0.0883653688748649      -0.04544888456022099     0.00569625130381469      -0.0486127356184585      0.0486127356184585       -0.00569625130381469     0.04544888456022099      0.0883653688748649
0.16014212474586403       -0.011095055431917066    -0.01567315481514955     -0.0050773847277074515   -0.08951911422011263     -0.045138892492444294    0.004519814670784746     -0.04890003639845297     0.04890003639845297      -0.004519814670784746    0.045138892492444294     0.08951911422011263
0.1607084342174048        -0.011152315599131147    -0.015672563039183386    -0.005094332016287588    -0.08969964838096282     -0.045090385984438174    0.0043357298541375384    -0.04894499225066209     0.04894499225066209      -0.0043357298541375384   0.045090385984438174     0.08969964838096282
0.16114741126641235       -0.011196839821587895    -0.015671848872730987    -0.005107533845736046    -0.08983936164431297     -0.045052002357961314    0.0041917315920730145    -0.04897909087842456     0.04897909087842456      -0.0041917315920730145   0.045052002357961314     0.08983936164431297
0.16133609337948232       -0.011216325685962253    -0.015670898960216388    -0.005113123357605104    -0.08989784168299413     -0.04503253893914504     0.004127552078304276     -0.04899285482215325     0.04899285482215325      -0.004127552078304276    0.04503253893914504      0.08989784168299413
0.16352723664003394       -0.011441006254193645    -0.015657993198760205    -0.005178558169578373    -0.09057022478298143     -0.04480619976620678     0.0033777344095798686    -0.04914175942635442     0.04914175942635442      -0.0033777344095798686   0.04480619976620678      0.09057022478298143
0.1643204873093225        -0.011522346445104213    -0.015653320978510115    -0.0052022472680171      -0.09081364489780722     -0.044724259117390294    0.003106280973253553     -0.049195666753670375    0.049195666753670375     -0.003106280973253553    0.044724259117390294     0.09081364489780722
0.16595090806585272       -0.011694051439658392    -0.015644051797107414    -0.00525047534119107     -0.09132215963540335     -0.04454595387676971     0.002542151147241215     -0.049318356905874744    0.049318356905874744     -0.002542151147241215    0.04454595387676971      0.09132215963540335
0.1664447856628073        -0.011746063320490913    -0.01564124403045052     -0.005265084309329824    -0.09147619596965273     -0.04449194268768898     0.002371268213050469     -0.04935552149501409     0.04935552149501409      -0.002371268213050469    0.04449194268768898      0.09147619596965273
0.17038641937675691       -0.01215833093762794     -0.015625553862010824    -0.005382669861980569    -0.0927240029092107      -0.04409067915869883     0.0010293202628543516    -0.04966264401336609     0.04966264401336609      -0.0010293202628543516   0.04409067915869883      0.0927240029092107
0.17211798164087894       -0.012339815835792476    -0.015613163891122465    -0.005434163562987129    -0.09325577759690096     -0.04389651425373094     4.2320574983396734E-4    -0.04978246909300384     0.04978246909300384      -4.2320574983396734E-4   0.04389651425373094      0.09325577759690096
0.17342843882117862       -0.012480084382821742    -0.015602641682463229    -0.0054731219811794945   -0.09366058173775124     -0.04374024420646415     -4.4731642971739764E-5   -0.0498756058883152      0.0498756058883152       4.4731642971739764E-5    0.04374024420646415      0.09366058173775124
0.17787423479599493       -0.012960943964241783    -0.015572086577882133    -0.005603704424354766    -0.09505296535954912     -0.04320918950258185     -0.0016204458922561926   -0.05022332996471093     0.05022332996471093      0.0016204458922561926    0.04320918950258185      0.09505296535954912
0.17956104633926226       -0.013143390369165594    -0.015560493445087668    -0.005653249651743478    -0.09558125968056821     -0.04300769820390568     -0.0022182990100420505   -0.05035526246662034     0.05035526246662034      0.0022182990100420505    0.04300769820390568      0.09558125968056821
0.1799154759724353        -0.013181373099822782    -0.015558900496995516    -0.005663777314910775    -0.09569455695027532     -0.042969064550984044    -0.002341153968302069    -0.050384338430989065    0.050384338430989065     0.002341153968302069     0.042969064550984044     0.09569455695027532
0.1802777822914781        -0.013221146777769706    -0.015555391719513569    -0.0056744977865182955   -0.0958064598601534      -0.04292187274907443     -0.002474109543071848    -0.05041047756800698     0.05041047756800698      0.002474109543071848     0.04292187274907443      0.0958064598601534
0.18051273672457224       -0.013247241254099467    -0.015554170632462637    -0.005681484858685986    -0.09588293384033089     -0.042893968823932864    -0.0025579100455549327   -0.05043105497084294     0.05043105497084294      0.0025579100455549327    0.042893968823932864     0.09588293384033089
0.1810146370396261        -0.01330357828525715     -0.01554891653410092     -0.005696062585352244    -0.09603815651422613     -0.04282384337319739     -0.0027446573096204787   -0.05046965583140811     0.05046965583140811      0.0027446573096204787    0.04282384337319739      0.09603815651422613
0.18128256620102742       -0.01333340678798561     -0.015546250782187954    -0.005703911395136785    -0.09612121150308234     -0.042787584351139746    -0.002843706809954455    -0.05048992034198798     0.05048992034198798      0.002843706809954455     0.042787584351139746     0.09612121150308234