% Model:              Cylinder_slice_potential.mph
% Version:            COMSOL 6.2.0.339
% Date:               May 8 2024, 04:47
% Dimension:          1
% Nodes:              809
% Expressions:        11
% Description:        Line graph
% Arc length (m)          Magnetic scalar potential Magnetic scalar potential Magnetic scalar potential Magnetic scalar potential Magnetic scalar potential Magnetic scalar potential Magnetic scalar potential Magnetic scalar potential Magnetic scalar potential Magnetic scalar potential Magnetic scalar potential
0                         -0.0052225983689615256   -0.004848758346696041    -1.6846776895139186E-7   -0.024992145649086996    -0.004101752173240897    0.0041004044310892765    -0.02499079790693536     0.02499079790693536      -0.0041004044310892765   0.004101752173240897     0.024992145649086996
5.051190869802442E-5      -0.005223503104758705    -0.004849940981811622    -3.943279859812156E-7    -0.02499840646689622     -0.004104394047861402    0.004101239423973543     -0.024995251843008347    0.024995251843008347     -0.004101239423973543    0.004104394047861402     0.02499840646689622
0.002302546874169686      -0.00526384006097913     -0.0049026678674180925   -1.046413368469311E-5    -0.02527754025895133     -0.004222180015034811    0.004138466945557258     -0.02519382718947376     0.02519382718947376      -0.004138466945557258    0.004222180015034811     0.02527754025895133
0.00906284413767904       -0.005385921066801363    -0.005075800815063345    -3.970318005504571E-5    -0.026158057299012962    -0.004614373031807517    0.004296747591367142     -0.025840431858572575    0.025840431858572575     -0.004296747591367142    0.004614373031807517     0.026158057299012962
0.015816591224346768      -0.005510965266426436    -0.005243878774636718    -6.794820415665506E-5    -0.027025359673389666    -0.0049814986076839275   0.004437912974430676     -0.0264817740401364      0.0264817740401364       -0.004437912974430676    0.0049814986076839275    0.027025359673389666
0.02091861038214517       -0.005608710621963696    -0.005379810417104243    -9.322022942095343E-5    -0.02772973341292395     -0.005294890925069176    0.0045491290897015394    -0.026983971577556304    0.026983971577556304     -0.0045491290897015394   0.005294890925069176     0.02772973341292395
0.021831500766535245      -0.005625536657939147    -0.005404108538984022    -9.78323385358137E-5     -0.027854728286973635    -0.005352581655217056    0.004569922946930538     -0.027072069578687102    0.027072069578687102     -0.004569922946930538    0.005352581655217056     0.027854728286973635
0.02726336626303197       -0.005732185747581118    -0.005558257538654017    -1.2357596074139427E-4   -0.02863344795408988     -0.0057047049637654204   0.004716097277834257     -0.02764484026815871     0.02764484026815871      -0.004716097277834257    0.0057047049637654204    0.02863344795408988
0.03307363697040868       -0.005846264434160304    -0.0057231451666579945   -1.511129853785705E-4    -0.029466416309808886    -0.006081358573167688    0.004872454690139115     -0.028257512426780308    0.028257512426780308     -0.004872454690139115    0.006081358573167688     0.029466416309808886
0.03334786637321271       -0.005852217573540248    -0.005730976686061942    -1.5254613188029148E-4   -0.0295075497327875      -0.0060986794386265275   0.004878310383584188     -0.028287180677745157    0.028287180677745157     -0.004878310383584188    0.0060986794386265275    0.0295075497327875
0.03436532756247876       -0.005872567397956961    -0.0057610340943736625   -1.5813006404576208E-4   -0.029660757335217967    -0.006170487743390141    0.004905447231024035     -0.028395716822851857    0.028395716822851857     -0.004905447231024035    0.006170487743390141     0.029660757335217967
0.03965648106991373       -0.005978393591598659    -0.005917343114403883    -1.8716846135693804E-4   -0.030457490371836732    -0.00654391600544211     0.005046568314586598     -0.02896014268098121     0.02896014268098121      -0.005046568314586598    0.00654391600544211      0.030457490371836732
0.04136045465890083       -0.006011857792656215    -0.005971383336894228    -1.9699490519217879E-4   -0.03072584521676384     -0.006678414046138998    0.00510245480460156      -0.029149885975226393    0.029149885975226393     -0.00510245480460156     0.006678414046138998     0.03072584521676384
0.0452220575606475        -0.006096022125641008    -0.0060996688888203515   -2.1749396299538187E-4   -0.03136102676972461     -0.006976938267160596    0.005236986563197532     -0.029621075065761532    0.029621075065761532     -0.005236986563197532    0.006976938267160596     0.03136102676972461
0.05033068271647061       -0.0061973061730680795   -0.006274354848674751    -2.4592972428392655E-4   -0.03220139578929612     -0.0074121710970238295   0.005444733302752407     -0.030233957995024693    0.030233957995024693     -0.005444733302752407    0.0074121710970238295    0.03220139578929612
0.050650615994069906      -0.006204433487122614    -0.00628484980354391     -2.4780730777943796E-4   -0.03225464561599472     -0.007436911667504284    0.005454453205268768     -0.03027218715375919     0.03027218715375919      -0.005454453205268768    0.007436911667504284     0.03225464561599472
0.051212238172746255      -0.006216799933793183    -0.006304549477542822    -2.512826114143455E-4    -0.032352378745872226    -0.007485179010699511    0.005474918119384736     -0.030342117854557434    0.030342117854557434     -0.005474918119384736    0.007485179010699511     0.032352378745872226
0.057096248748082286      -0.006354831343476263    -0.006495050308774336    -2.875610370465822E-4    -0.03334505776146188     -0.00792573238755684     0.005625244091184173     -0.031044569465089194    0.031044569465089194     -0.005625244091184173    0.00792573238755684      0.03334505776146188
0.0608894085512664        -0.006421369224757964    -0.0066280518860486895   -3.1006437292049877E-4   -0.03396715159934401     -0.008281674700312165    0.005801159716948165     -0.031486636615979995    0.031486636615979995     -0.005801159716948165    0.008281674700312165     0.03396715159934401
0.061544177542186294      -0.006434284239853061    -0.00665103297778117     -3.13902322460238E-4     -0.0340772767028906      -0.00834013974347837     0.0058289211637964555    -0.03156605812320867     0.03156605812320867      -0.0058289211637964555   0.00834013974347837      0.0340772767028906
0.06261297958564291       -0.006457388715280332    -0.006693333841543712    -3.20583994343246E-4     -0.03427711493256481     -0.00844756007144349     0.0058828881166975095    -0.031712442977818806    0.031712442977818806     -0.0058828881166975095   0.00844756007144349      0.03427711493256481
0.06721167484963925       -0.006552547967596464    -0.006872340598377368    -3.493179779692266E-4    -0.03511938964220196     -0.008909197771816119    0.006114653948062293     -0.03232484581844811     0.03232484581844811      -0.006114653948062293    0.008909197771816119     0.03511938964220196
0.07107445009832805       -0.006637899456990209    -0.007013783267077185    -3.7446101108584565E-4   -0.035814992759555374    -0.009263394931594551    0.006267706842907773     -0.032819304670868577    0.032819304670868577     -0.006267706842907773    0.009263394931594551     0.035814992759555374
0.07572485137875726       -0.006749455754550201    -0.007204899251877147    -4.065444986441746E-4    -0.03673978725930857     -0.009741964241107768    0.0064896082519543576    -0.03348743127015513     0.03348743127015513      -0.0064896082519543576   0.009741964241107768     0.03673978725930857
0.07625811207128935       -0.006762741421389654    -0.007226820093799327    -4.1019860497822026E-4   -0.036846737544090194    -0.009795771858531584    0.006514183018705808     -0.03356514870426439     0.03356514870426439      -0.006514183018705808    0.009795771858531584     0.036846737544090194
0.07652186706385786       -0.006768999648512027    -0.007238231006970041    -4.119434510492941E-4    -0.03690046612213138     -0.009824467528083277    0.00652891991968891      -0.03360491851373699     0.03360491851373699      -0.00652891991968891     0.009824467528083277     0.03690046612213138
0.08349988445669333       -0.006916590607966303    -0.007535134894065726    -4.586903389080178E-4    -0.03827334725376188     -0.010606984821896669    0.006937462110632515     -0.034603824542497705    0.034603824542497705     -0.006937462110632515    0.010606984821896669     0.03827334725376188
0.08531416947287702       -0.006960605425872488    -0.0076135481176973895   -4.7159345941583515E-4   -0.0386482290425005      -0.010805807339010562    0.007033059663683865     -0.03487548136717379     0.03487548136717379      -0.007033059663683865    0.010805807339010562     0.0386482290425005
0.08588776303082785       -0.006974520888867642    -0.00763833877601848     -4.7567283323787996E-4   -0.03876674943874226     -0.0108686658832717      0.007063283217368647     -0.03496136677283919     0.03496136677283919      -0.007063283217368647    0.0108686658832717       0.03876674943874226
0.08928863333007958       -0.007053309344379017    -0.007781292531499378    -5.000412524603636E-4    -0.03945066129309764     -0.011237423915581583    0.007237093895898657     -0.035450331273414695    0.035450331273414695     -0.007237093895898657    0.011237423915581583     0.03945066129309764
0.09404227452586177       -0.007161412405011845    -0.008004120341392367    -5.35386516203961E-4     -0.04047673189901664     -0.011831082278969283    0.00754799014933758      -0.03619363976938493     0.03619363976938493      -0.00754799014933758     0.011831082278969283     0.04047673189901664
0.09485090933012853       -0.007178832025516427    -0.008043301344856037    -5.412583408347187E-4    -0.04065260144893985     -0.011937273346874158    0.0076072066201963925    -0.03632253472226207     0.03632253472226207      -0.0076072066201963925   0.011937273346874158     0.04065260144893985
0.09501109967297744       -0.007182282847774142    -0.008051063091376086    -5.424215477555516E-4    -0.04068744116069876     -0.011958309769602207    0.0076189373875577785    -0.03634806877865431     0.03634806877865431      -0.0076189373875577785   0.011958309769602207     0.04068744116069876
0.09760324277195685       -0.007246958016308359    -0.008172745454422502    -5.616547353479443E-4    -0.04125877133727601     -0.01227093927204259     0.0077777013892590206    -0.03676553345449242     0.03676553345449242      -0.0077777013892590206   0.01227093927204259      0.04125877133727601
0.09778455020354558       -0.007251404476578349    -0.008182134185404623    -5.630489644831273E-4    -0.04130140736730309     -0.012295789460989706    0.007791397745124673     -0.03679701565143804     0.03679701565143804      -0.007791397745124673    0.012295789460989706     0.04130140736730309
0.10015084589258545       -0.007309436514626505    -0.008304669226874683    -5.81245451870369E-4     -0.04185786251735856     -0.012620116458852543    0.007970152843889577     -0.037207898902395564    0.037207898902395564     -0.007970152843889577    0.012620116458852543     0.04185786251735856
0.10367671456902992       -0.007396320425402914    -0.008490583542616083    -6.069549586222937E-4    -0.042692211313143276    -0.013106929611531619    0.008251289942553258     -0.03783657164416489     0.03783657164416489      -0.008251289942553258    0.013106929611531619     0.042692211313143276
0.10434559982393668       -0.007411442689718689    -0.008522062858545811    -6.125418695577536E-4    -0.04283924143330585     -0.013193470674431095    0.008293135717969056     -0.03793890647684378     0.03793890647684378      -0.008293135717969056    0.013193470674431095     0.04283924143330585
0.1059178522138341        -0.007445880342681288    -0.008590984643294086    -6.25794805419993E-4     -0.04316789383692483     -0.013384372466199683    0.00837801402283973      -0.03816153539356485     0.03816153539356485      -0.00837801402283973     0.013384372466199683     0.04316789383692483
0.10610853391823222       -0.007451113099691391    -0.008600975164323291    -6.273470866494052E-4    -0.0432145400389503      -0.013410087640184745    0.008391310946989493     -0.03819576334575502     0.03819576334575502      -0.008391310946989493    0.013410087640184745     0.0432145400389503
0.1101283639909293        -0.0075614267454536775   -0.008811588956568722    -6.600712894614677E-4    -0.04419790551845941     -0.013952198536644707    0.008671628220952953     -0.03891733520276763     0.03891733520276763      -0.008671628220952953    0.013952198536644707     0.04419790551845941
0.11397881203081259       -0.007640096069130959    -0.009013808018144462    -6.91809647585328E-4     -0.04508885478303664     -0.01452847050651281     0.008993993325830178     -0.03955437760235398     0.03955437760235398      -0.008993993325830178    0.01452847050651281      0.04508885478303664
0.11441392875434307       -0.007649886707040966    -0.009038448263371598    -6.95332893837543E-4     -0.04519644977954692     -0.014596902951383056    0.009034239800682697     -0.03963378662884654     0.03963378662884654      -0.009034239800682697    0.014596902951383056     0.04519644977954692
0.11733347236442888       -0.007710339202098714    -0.009208206544914672    -7.196326125033453E-4    -0.04592382848895485     -0.015082471680559999    0.009325410780533226     -0.04016676758892806     0.04016676758892806      -0.009325410780533226    0.015082471680559999     0.04592382848895485
0.11803353010554563       -0.0077248346996103105   -0.009248911742364835    -7.254592787330214E-4    -0.046098241741247235    -0.015198902942805997    0.009395228712941815     -0.04029456751138303     0.04029456751138303      -0.009395228712941815    0.015198902942805997     0.046098241741247235
0.12278734631922923       -0.00783845571104471     -0.009537161745554181    -7.667183796050241E-4    -0.0473552701771721      -0.016001447332993253    0.009867700296153048     -0.041221523140331874    0.041221523140331874     -0.009867700296153048    0.016001447332993253     0.0473552701771721
0.12357334577080425       -0.00785724189222222     -0.00958482121202055     -7.735401895362802E-4    -0.047563108178651246    -0.016134140609762364    0.00994581909347211      -0.04137478666236097     0.04137478666236097      -0.00994581909347211     0.016134140609762364     0.047563108178651246
0.12683656638437105       -0.00793287708860175     -0.009782641581660452    -8.015421651604471E-4    -0.04841984758282668     -0.016688339228419675    0.010276001907136081     -0.042007510261543056    0.042007510261543056     -0.010276001907136081    0.016688339228419675     0.04841984758282668
0.1303832516140029        -0.008024975466724057    -0.009989591837653996    -8.326488126990551E-4    -0.049349321697206364    -0.017249419830310128    0.010588229328717672     -0.04268813119561388     0.04268813119561388      -0.010588229328717672    0.017249419830310128     0.049349321697206364
0.13084842406549868       -0.008036672423972166    -0.010016308290908535    -8.369639172757023E-4    -0.04947012538977279     -0.017323435693884115    0.010627724355678485     -0.04277441405156713     0.04277441405156713      -0.010627724355678485    0.017323435693884115     0.04947012538977279
0.13215131730196944       -0.008067686537530183    -0.010105467330758847    -8.492746248898354E-4    -0.04984887356689628     -0.01757812741677555     0.010783930417656854     -0.04305467656777757     0.04305467656777757      -0.010783930417656854    0.01757812741677555      0.04984887356689628
0.13688726595800824       -0.008181769232779752    -0.01042959122077978     -8.931698743364221E-4    -0.05122499162524456     -0.01849791469412555     0.01135255569943416      -0.04407963263055316     0.04407963263055316      -0.01135255569943416     0.01849791469412555      0.05122499162524456
0.13984510148176474       -0.008253019550965695    -0.010632022713524026    -9.2058464116919E-4      -0.05208444580718026     -0.01907236760331747     0.011707690473963937     -0.04471976867782671     0.04471976867782671      -0.011707690473963937    0.01907236760331747      0.05208444580718026
0.14487277317326577       -0.00836379567374266     -0.010977332859497148    -9.666042437702347E-4    -0.05352600690105772     -0.020070824206087086    0.012337990255925198     -0.04579317295089583     0.04579317295089583      -0.012337990255925198    0.020070824206087086     0.05352600690105772
0.14711474566605157       -0.008410186336789352    -0.01115597336173183     -9.875121057830154E-4    -0.054238341181906284    -0.02059759583474887     0.012697498988484731     -0.04633824433564215     0.04633824433564215      -0.012697498988484731    0.02059759583474887      0.054238341181906284
0.1494147192426734        -0.00846745481036629     -0.011332534762398278    -0.0010094039590671168   -0.054970129744195906    -0.02110031050273074     0.013025078830193796     -0.04689489807165896     0.04689489807165896      -0.013025078830193796    0.02110031050273074      0.054970129744195906
0.15576762276719772       -0.008623772899845464    -0.01180954054447839     -0.0010729546414073963   -0.0569679859987557      -0.022472894399373854    0.013889257268114671     -0.04838434886749653     0.04838434886749653      -0.013889257268114671    0.022472894399373854     0.0569679859987557
0.15595499449948358       -0.008628176979858458    -0.011823811605514437    -0.0010747773589467428   -0.05702689821204722     -0.022514190292613395    0.013915971421039444     -0.04842867934047328     0.04842867934047328      -0.013915971421039444    0.022514190292613395     0.05702689821204722
0.15723142922040023       -0.008658178947464243    -0.011921030527432385    -0.0010871942797130798   -0.05742822659607799     -0.022795510806221022    0.014097956568516371     -0.04873067235837335     0.04873067235837335      -0.014097956568516371    0.022795510806221022     0.05742822659607799
0.1577611061983593        -0.008670669960676239    -0.01195942713955962     -0.0010928140590756898   -0.05759087757633412     -0.02290819773362917     0.014165685261023641     -0.0488483651037286      0.0488483651037286       -0.014165685261023641    0.02290819773362917      0.05759087757633412
0.15783530409377455       -0.008672419719360306    -0.01196480579094427     -0.0010936012856661492   -0.05761366195421805     -0.022923983076776823    0.014175172791447617     -0.04886485166888884     0.04886485166888884      -0.014175172791447617    0.022923983076776823     0.05761366195421805
0.15821692592225958       -0.008683150800762852    -0.011994115331153073    -0.001097654398303814    -0.05773926518820022     -0.0230066619851488      0.014225426798718278     -0.04895803000176968     0.04895803000176968      -0.014225426798718278    0.0230066619851488       0.05773926518820022
0.15826487835277786       -0.008684499207475814    -0.011997798201433228    -0.0010981636894072922   -0.05775504777688052     -0.023017050946977258    0.01423174143171891      -0.04896973826162217     0.04896973826162217      -0.01423174143171891     0.023017050946977258     0.05775504777688052
0.15836118445853978       -0.008686895919428813    -0.012006296482970785    -0.0010991506952362112   -0.057789284068714857    -0.023041700390999606    0.014248494829109904     -0.04899607850682515     0.04899607850682515      -0.014248494829109904    0.023041700390999606     0.057789284068714857
0.15910460975959756       -0.008705397096390647    -0.012071898112904326    -0.0011067697875014942   -0.05805356768150029     -0.023231979295937684    0.01437782099592572      -0.049199409381488306    0.049199409381488306     -0.01437782099592572     0.023231979295937684     0.05805356768150029
0.16161326431027315       -0.008766166038292729    -0.012283583024599101    -0.00113272245172889     -0.058913970957298355    -0.023849306804127432    0.014787527190296294     -0.04985219134346722     0.04985219134346722      -0.014787527190296294    0.023849306804127432     0.058913970957298355
0.163810267912774         -0.008808879061245313    -0.012465533431529504    -0.0011547830027876039   -0.05963349042822959     -0.024397974183248336    0.015159710160947488     -0.05039522640592874     0.05039522640592874      -0.015159710160947488    0.024397974183248336     0.05963349042822959
0.16403943809034216       -0.008812991909536732    -0.01248410394172076     -0.0011571583051241338   -0.05970692886473232     -0.02445496122658539     0.015197694785592299     -0.05044966242373923     0.05044966242373923      -0.015197694785592299    0.02445496122658539      0.05970692886473232
0.1655863524425164        -0.008840753916434078    -0.012609456153980202    -0.0011731917581419855   -0.06020264332737674     -0.02483962766164043     0.015454093596504525     -0.050817109262240825    0.050817109262240825     -0.015454093596504525    0.02483962766164043      0.06020264332737674
0.16680528475277714       -0.008870788405841833    -0.012720677635232625    -0.0011862224312745703   -0.06064849944247985     -0.025165345819112523    0.01567556636891594      -0.05115871999228326     0.05115871999228326      -0.01567556636891594     0.025165345819112523     0.06064849944247985
0.16942796665691223       -0.008930960423056904    -0.012960746702892963    -0.001214294825593778    -0.06160134025716782     -0.025877498564940222    0.016163139960189987     -0.051886981652417584    0.051886981652417584     -0.016163139960189987    0.025877498564940222     0.06160134025716782
0.1718346841233312        -0.00897899716163978     -0.01318683784608498     -0.00123868960652884     -0.06247326628764988     -0.026557277641090764    0.01664776078886003      -0.05256374943541914     0.05256374943541914      -0.01664776078886003     0.026557277641090764     0.06247326628764988
0.17219170645805207       -0.008984915095006055    -0.013218695712729173    -0.0012422169247306646   -0.06259478502712232     -0.026655124647098103    0.01671738924925277      -0.05265704962927697     0.05265704962927697      -0.01671738924925277     0.026655124647098103     0.06259478502712232
0.1728438679629397        -0.008997695036351682    -0.013280690477174152    -0.001249390942048717    -0.0628350252724207      -0.026844245127013985    0.01684911759062424      -0.05283989773603095     0.05283989773603095      -0.01684911759062424     0.026844245127013985     0.0628350252724207
0.1747581325083709        -0.009040409482928564    -0.013455679368084759    -0.0012707867837717889   -0.06353100420519857     -0.027369366273484325    0.01720307200331         -0.05336470993502424     0.05336470993502424      -0.01720307200331        0.027369366273484325     0.06353100420519857
0.17794391367466839       -0.009101991500141359    -0.013754566511583577    -0.0013045862645074961   -0.06468602759306345     -0.028278061592498023    0.017841371476438037     -0.05424933747700346     0.05424933747700346      -0.017841371476438037    0.028278061592498023     0.06468602759306345
0.1787970604735878        -0.009120972101802675    -0.013836281765710143    -0.0013134084054917002   -0.06500442312270259     -0.02852053471549191     0.018013267471558295     -0.05449715587876897     0.05449715587876897      -0.018013267471558295    0.02852053471549191      0.06500442312270259
0.1800401654585035        -0.009148654561873379    -0.013966248156435525    -0.0013271193206227405   -0.06550453087554431     -0.028909912628050802    0.01829295806306886      -0.05488757631056236     0.05488757631056236      -0.01829295806306886     0.028909912628050802     0.06550453087554431
0.1820561039363891        -0.009196154455449957    -0.014175070876300207    -0.001349807595765443    -0.06631675192286232     -0.029532134101062504    0.01873367333493894      -0.05551829115673876     0.05551829115673876      -0.01873367333493894     0.029532134101062504     0.06631675192286232
0.18521638566581233       -0.00924995962090469     -0.014490966176189128    -0.0013834297685954623   -0.06750653684475863     -0.03050669836113987     0.019439260212376158     -0.05643909869599491     0.05643909869599491      -0.019439260212376158    0.03050669836113987      0.06750653684475863
0.1854024144891235        -0.009253126842207911    -0.014509561236996756    -0.0013854089254505297   -0.06757657309720823     -0.030564065728376583    0.019480794324772326     -0.05649330169360396     0.05649330169360396      -0.019480794324772326    0.030564065728376583     0.06757657309720823
0.18548555053111007       -0.009254635202387085    -0.014518701113521684    -0.0013863549362938944   -0.06761079349051481     -0.030592252680966478    0.01950141319061531      -0.05651995400016363     0.05651995400016363      -0.01950141319061531     0.030592252680966478     0.06761079349051481
0.1880392973099597        -0.009296378277916786    -0.014800939014928325    -0.001415147042034688    -0.06865616176875732     -0.03147064865709018     0.020149472320812656     -0.05733498543247978     0.05733498543247978      -0.020149472320812656    0.03147064865709018      0.06865616176875732
0.19121608670999257       -0.00934830549363207     -0.01515203505189722     -0.00145096361440573     -0.06995657060057875     -0.03256334862605047     0.020955639710804604     -0.05834886168533286     0.05834886168533286      -0.020955639710804604    0.03256334862605047      0.06995657060057875
0.19206342334862775       -0.009367769743511306    -0.015245051302456573    -0.0014604308790185322   -0.07031241691046648     -0.032841337936421265    0.02115789090427299      -0.05862896987831819     0.05862896987831819      -0.02115789090427299     0.032841337936421265     0.07031241691046648
0.19257270196909104       -0.009378343903588821    -0.015306771001962757    -0.0014662818638298922   -0.0705421282683855      -0.03302875265403022     0.021298497743391064     -0.058811873357746326    0.058811873357746326     -0.021298497743391064    0.03302875265403022      0.0705421282683855
0.1972042862710596        -0.009462702351587738    -0.015835524797114784    -0.0015193987646670037   -0.07250957415318787     -0.03465876474683692     0.02250357462950088      -0.060354384035851805    0.060354384035851805     -0.02250357462950088     0.03465876474683692      0.07250957415318787
0.19724387255001635       -0.009463271693639383    -0.015840071485675386    -0.0015198381144240804   -0.07252611030200126     -0.03467302352744374     0.022514318612051092     -0.060367405386608605    0.060367405386608605     -0.022514318612051092    0.03467302352744374      0.07252611030200126
0.19872514161764027       -0.009484575761418066    -0.016010202887323605    -0.0015362780330569288   -0.07314487231703468     -0.03520656927136241     0.022916345006906973     -0.060854648052579216    0.060854648052579216     -0.022916345006906973    0.03520656927136241      0.07314487231703468
0.1995067180541241        -0.009493284081012123    -0.016098966171505504    -0.0015452756420779802   -0.0734645692448527      -0.0354914329208042      0.023129227784180348     -0.061102364108228835    0.061102364108228835     -0.023129227784180348    0.0354914329208042       0.0734645692448527
0.2011334244207422        -0.009511408832814941    -0.0162837104815441      -0.0015640024961586017   -0.07412995909489661     -0.03608432376363684     0.02357230379436802      -0.061617939125627776    0.061617939125627776     -0.02357230379436802     0.03608432376363684      0.07412995909489661
0.2013139940679606        -0.009513857096605193    -0.01630516944957418     -0.0015661482917400094   -0.074207815708893       -0.03615238732247221     0.02362320098855213      -0.0616786293749729      0.0616786293749729       -0.02362320098855213     0.03615238732247221      0.074207815708893
0.2046964721204021        -0.009569835204669318    -0.016754041671436657    -0.001606195669478083    -0.07582657810156096     -0.037547237282883686    0.024697671927059017     -0.06297701274573628     0.06297701274573628      -0.024697671927059017    0.037547237282883686     0.07582657810156096
0.20491520078756936       -0.009571990851857039    -0.016783181904440683    -0.0016088316268352428   -0.07592885392437712     -0.03764089051694895     0.02477023750226701      -0.06305820090969515     0.06305820090969515      -0.02477023750226701     0.03764089051694895      0.07592885392437712
0.20808818739052148       -0.009603261739829397    -0.017205904586959288    -0.0016470701325077756   -0.07741251777056776     -0.038999470811250186    0.025822909751187978     -0.06423595671050554     0.06423595671050554      -0.025822909751187978    0.038999470811250186     0.07741251777056776
0.20848870515917473       -0.00961048482125        -0.017257978310170136    -0.0016518723963587652   -0.07760239415844547     -0.03916045487344549     0.025945475702575358     -0.06438741498757533     0.06438741498757533      -0.025945475702575358    0.03916045487344549      0.07760239415844547
0.20884073047115478       -0.009615191677790385    -0.01730409156813397     -0.0016559879322758538   -0.0777666097890861      -0.03930584307792458     0.026057939619717745     -0.06451870633087925     0.06451870633087925      -0.026057939619717745    0.03930584307792458      0.0777666097890861
0.21066780262316392       -0.009639621075949475    -0.017543427339162032    -0.00167734827429902     -0.07861891726658113     -0.04006043296278325     0.026641646768391085     -0.06520013107218897     0.06520013107218897      -0.026641646768391085    0.04006043296278325      0.07861891726658113
0.21216912690585452       -0.009667733302484693    -0.017763948372101993    -0.0016956776735654587   -0.07941002241553721     -0.04073908920559846     0.02717366781707478      -0.06584460102701353     0.06584460102701353      -0.02717366781707478     0.04073908920559846      0.07941002241553721