% Model:              Cylinder_slice_potential_3.mph
% Version:            COMSOL 6.2.0.339
% Date:               May 16 2024, 16:02
% Dimension:          1
% Nodes:              872
% Expressions:        11
% Description:        Line graph
% Arc length (m)          Magnetic scalar potential Magnetic scalar potential Magnetic scalar potential Magnetic scalar potential Magnetic scalar potential Magnetic scalar potential Magnetic scalar potential Magnetic scalar potential Magnetic scalar potential Magnetic scalar potential Magnetic scalar potential
0                         0.0019226764891808721    -0.014594233031966292    -2.1801393185546982E-7   -0.03993821817326456     -0.047628924129987996    0.04762718001853321      -0.03993647406180969     0.03993647406180969      -0.04762718001853321     0.047628924129987996     0.03993821817326456
7.103506047840436E-4      0.0019133940615035357    -0.01459069952386049     -5.639442494586401E-8    -0.039945536026274195    -0.04759911227228829     0.047598661116888784     -0.0399450848708746      0.0399450848708746       -0.047598661116888784    0.04759911227228829      0.039945536026274195
0.0019205754902141383     0.0018984187331228916    -0.014588577625944968    -7.315047725730886E-7    -0.03997182143067942     -0.04756549636317095     0.04755964432499042      -0.03996596939249881     0.03996596939249881      -0.04755964432499042     0.04756549636317095      0.03997182143067942
0.0022765304880614586     0.0018939016027385       -0.014587944047834105    -7.999644890090685E-7    -0.039979228795981356    -0.04755483520693533     0.047548435491023305     -0.03997282908006927     0.03997282908006927      -0.047548435491023305    0.04755483520693533      0.039979228795981356
0.01596534818546489       0.00173906292127592      -0.01456630045423745     2.76796723794315E-9      -0.04022076444829155     -0.047177016133395214    0.047177038277133175     -0.040220786592029434    0.040220786592029434     -0.047177038277133175    0.047177016133395214     0.04022076444829155
0.017355228562666105      0.0017233415310321614    -0.014564102893666692    8.427260217007968E-8     -0.04024528852852706     -0.04713865465265568     0.04713932883347311      -0.0402459627093444      0.0402459627093444       -0.04713932883347311     0.04713865465265568      0.04024528852852706
0.028177928538168355      0.0016132015303440715    -0.014597954702080355    1.576015561801237E-6     -0.0405611569833057      -0.047013963104681984    0.04702657122917645      -0.04057376510780009     0.04057376510780009      -0.04702657122917645     0.047013963104681984     0.0405611569833057
0.028211430481691946      0.0016128605891657065    -0.0145980594912158      1.5806332901405922E-6    -0.04056213476215542     -0.047013577118818234    0.047026222185139424     -0.04057477982847653     0.04057477982847653      -0.047026222185139424    0.047013577118818234     0.04056213476215542
0.030514998656253733      0.001586590886621059     -0.014602982937426644    2.140506266352059E-6     -0.0406272050139724      -0.04697356856045662     0.04699069261058749      -0.04064432906410318     0.04064432906410318      -0.04699069261058749     0.04697356856045662      0.0406272050139724
0.03323197560011766       0.0015573180479172524    -0.014608636069793563    7.165734761694735E-7     -0.040708405819641504    -0.04693767801131048     0.04694341059911991      -0.040714138407450834    0.040714138407450834     -0.04694341059911991     0.04693767801131048      0.040708405819641504
0.03398073749462454       0.001549146472689974     -0.014609927163888304    2.608839326419367E-7     -0.040730445010554395    -0.046927030901314254    0.046929117972775464     -0.0407325320820155      0.0407325320820155       -0.046929117972775464    0.046927030901314254     0.040730445010554395
0.034626378612747914      0.001542643427484824     -0.014614183234403486    4.4308526002858264E-7    -0.04075549050720069     -0.046926064217139955    0.04692960889922025      -0.040759035189280896    0.040759035189280896     -0.04692960889922025     0.046926064217139955     0.04075549050720069
0.039077842995340936      0.0014978072587580587    -0.01464352731701583     1.6992981878551571E-6    -0.040928170240779944    -0.046919399275812144    0.04693299366131505      -0.04094176462628277     0.04094176462628277      -0.04693299366131505     0.046919399275812144     0.040928170240779944
0.048116288812496064      0.0014198434292630575    -0.014703053085513937    1.5757057623598064E-6    -0.041263169574966244    -0.04694254329201843     0.04695514893811737      -0.041275775221065125    0.041275775221065125     -0.04695514893811737     0.04694254329201843      0.041263169574966244
0.05020590174995019       0.001401633513988077     -0.014715303704933246    -1.3764413248113394E-7   -0.04134319466335351     -0.046949728719305764    0.04694862756624597      -0.041342093510293644    0.041342093510293644     -0.04694862756624597     0.046949728719305764     0.04134319466335351
0.05103224672043877       0.0013937165736103182    -0.014721018986231123    -6.76943322428639E-7     -0.04137833158476245     -0.04695319787920367     0.0469477823326243       -0.04137291603818301     0.04137291603818301      -0.0469477823326243      0.04695319787920367      0.04137833158476245
0.05201133186590965       0.0013852987600015006    -0.014731480130801538    -1.0708858734169554E-6   -0.04142812641589528     -0.04696932145590123     0.046960754368913955     -0.04141955932890793     0.04141955932890793      -0.046960754368913955    0.04696932145590123      0.04142812641589528
0.05812807262275334       0.0013330495027476673    -0.014785625296615229    -9.049985947190475E-7    -0.041694396878729216    -0.047026594889719865    0.04701935490096215      -0.04168715688997147     0.04168715688997147      -0.04701935490096215     0.047026594889719865     0.041694396878729216
0.05816757716433131       0.0013327120545807993    -0.014785974989374683    -9.039272233532189E-7    -0.04169611656785585     -0.04702696478617902     0.04701973336839224      -0.041688885150069036    0.041688885150069036     -0.04701973336839224     0.04702696478617902      0.04169611656785585
0.05817233058272687       0.0013326701126918574    -0.014786020987094901    -9.024360165470059E-7    -0.041696332479967166    -0.047027012930734566    0.04701979344260224      -0.0416891129918348      0.0416891129918348       -0.04701979344260224     0.047027012930734566     0.041696332479967166
0.0631604980264944        0.001292994078863762     -0.0148393138041863      -1.2318225467953267E-6   -0.041936880545018554    -0.047108856860473565    0.047099002280099264     -0.041927025964644205    0.041927025964644205     -0.047099002280099264    0.047108856860473565     0.041936880545018554
0.0654871524248272        0.0012760876651901909    -0.014866129941806559    -3.2998287218518674E-7   -0.04204753442652803     -0.04715188508728876     0.04714924522431134      -0.04204489456355055     0.04204489456355055      -0.04714924522431134     0.04715188508728876      0.04204753442652803
0.06867458989673215       0.0012520730231842829    -0.014904718091409948    -2.7982119679197885E-6   -0.042221201075732954    -0.04722949316847005     0.047207107472726745     -0.042198815379989596    0.042198815379989596     -0.047207107472726745    0.04722949316847005      0.042221201075732954
0.06959903949728133       0.0012442903262693344    -0.014916276266687921    -2.309680612727806E-6    -0.042269486869975996    -0.04724664817505331     0.047228170730151536     -0.042251009425074176    0.042251009425074176     -0.047228170730151536    0.04724664817505331      0.042269486869975996
0.07140627995668794       0.0012290756463780364    -0.014938871767823794    -1.3546327331383185E-6   -0.04236388254164784     -0.04728018512715996     0.04726934806529491      -0.04235304547978274     0.04235304547978274      -0.04726934806529491     0.04728018512715996      0.04236388254164784
0.07284733620442399       0.0012189420864420226    -0.014958934489178613    -1.4900880803983768E-6   -0.042444879646973376    -0.047320647992741424    0.047308727288098304     -0.04243295894233018     0.04243295894233018      -0.047308727288098304    0.047320647992741424     0.042444879646973376
0.07527752192793369       0.001200135627339935     -0.014994688927680215    -1.6586281221069293E-6   -0.0425904300408492      -0.047390972550208896    0.0473777035252321       -0.042577161015872333    0.042577161015872333     -0.0473777035252321      0.047390972550208896     0.0425904300408492
0.0756944934245388        0.00119690881330602      -0.015000823677624658    -1.6875462384257473E-6   -0.04261540359121563     -0.04740303884443967     0.04738953847453233      -0.042601903221308225    0.042601903221308225     -0.04738953847453233     0.04740303884443967      0.04261540359121563
0.0828745091195805        0.0011481664058857071    -0.015094791672407378    -5.734269058730885E-8    -0.04298827157621305     -0.04758093719975585     0.047580478458231205     -0.042987812834688346    0.042987812834688346     -0.047580478458231205    0.04758093719975585      0.04298827157621305
0.08360882105694178       0.0011424756833166253    -0.015107184328824557    -7.180687378041336E-7    -0.043039473894791624    -0.047609376628058094    0.04760363207815572      -0.043033729344889186    0.043033729344889186     -0.04760363207815572     0.047609376628058094     0.043039473894791624
0.08399738528534668       0.001139464413702696     -0.015113741954723887    -1.0676946851179917E-6   -0.04306656781550673     -0.047624425470317484    0.0476158839128366       -0.04305802625802578     0.04305802625802578      -0.0476158839128366      0.047624425470317484     0.04306656781550673
0.0868662783602397        0.0011207966991162873    -0.015158524211861724    -1.648970469724962E-6    -0.04324057511923149     -0.047723761915696605    0.04771057015193886      -0.04322738335547368     0.04322738335547368      -0.04771057015193886     0.047723761915696605     0.04324057511923149
0.08789341769630352       0.001114113165270458     -0.015174557440240481    -1.8570825212671965E-6   -0.04330287432026559     -0.04775932698134738     0.047744470321177304     -0.04328801766009545     0.04328801766009545      -0.047744470321177304    0.04775932698134738      0.04330287432026559
0.08849481375259957       0.0011104458051029052    -0.01518421181110634     -1.545915845682427E-6    -0.043337927486495925    -0.04777971070690751     0.047767343380142116     -0.04332556015973045     0.04332556015973045      -0.047767343380142116    0.04777971070690751      0.043337927486495925
0.09192263247555407       0.001089016422823617     -0.015237703413125112    -6.886457239826569E-7    -0.04353783197662403     -0.047893897667918454    0.047888388502126664     -0.04353232281083215     0.04353232281083215      -0.047888388502126664    0.047893897667918454     0.04353783197662403
0.09338739196663513       0.001079693838556238     -0.015260667713994876    -3.3141534166569037E-7   -0.04362394112623881     -0.04794271648046372     0.047940065157730465     -0.043621289803505464    0.043621289803505464     -0.047940065157730465    0.04794271648046372      0.04362394112623881
0.09512700666197493       0.00106862191535736      -0.015287941157522283    9.284763562462527E-8     -0.04372620825130964     -0.04800069591273903     0.048001438693824096     -0.04372695103239461     0.04372695103239461      -0.048001438693824096    0.04800069591273903      0.04372620825130964
0.09546815638244392       0.0010667746014436773    -0.015293793447456863    7.025659023743801E-8     -0.04374755011312229     -0.048014648518896946    0.04801521057161892      -0.043748112165844164    0.043748112165844164     -0.04801521057161892     0.048014648518896946     0.04374755011312229
0.09569273116812016       0.0010655585367619542    -0.015297645940010474    5.538517492732504E-8     -0.043761599205807813    -0.04802383335285557     0.04802427643425507      -0.0437620422872072      0.0437620422872072       -0.04802427643425507     0.04802383335285557      0.043761599205807813
0.10163775027718955       0.001030595182709603     -0.015404430924784877    1.7382286842868553E-6    -0.04414514949419829     -0.048267530225036645    0.048281436054511004     -0.04415905532367255     0.04415905532367255      -0.048281436054511004    0.048267530225036645     0.04414514949419829
0.1030750949217713        0.0010233386998557822    -0.015432158960161998    1.69015801022252E-6      -0.04424303884873355     -0.04833639364815662     0.04834991491223847      -0.0442565601128153      0.0442565601128153       -0.04834991491223847     0.04833639364815662      0.04424303884873355
0.10334172897346411       0.001021992588864485     -0.015437302638434257    1.6812406787796266E-6    -0.04426119777485869     -0.048349168130316575    0.04836261805574689      -0.04427464770028891     0.04427464770028891      -0.04836261805574689     0.048349168130316575     0.04426119777485869
0.1104578205587152        9.792169013089391E-4     -0.015566158865297084    2.6289635674114236E-7    -0.04473899120784641     -0.04865585881308212     0.04865796198393611      -0.044741094378700316    0.044741094378700316     -0.04865796198393611     0.04865585881308212      0.04473899120784641
0.11411752457177106       9.59057488888777E-4      -0.01563935117319487     1.1594895421802648E-6    -0.044995300583638334    -0.048831530539193396    0.04884080645553091      -0.04500457649997576     0.04500457649997576      -0.04884080645553091     0.048831530539193396     0.044995300583638334
0.12022601608404215       9.237566249597095E-4     -0.015760999116138767    -2.795492129353046E-7    -0.045436602295348634    -0.049131628795187426    0.04912939240148401      -0.04543436590164514     0.04543436590164514      -0.04912939240148401     0.049131628795187426     0.045436602295348634
0.12209493246548556       9.141090401397588E-4     -0.015802219076970086    4.249444437343135E-7     -0.04557673937285581     -0.049233175533414796    0.049236575088964736     -0.045580138928405664    0.045580138928405664     -0.049236575088964736    0.049233175533414796     0.04557673937285581
0.12350045991842368       9.077010870763207E-4     -0.01583193549695961     3.9513930500704943E-7    -0.045678823759506174    -0.04930962810781141     0.04931278922225153      -0.045681984873946216    0.045681984873946216     -0.04931278922225153     0.04930962810781141      0.045678823759506174
0.12659729886635257       8.935822603099895E-4     -0.015897410537396715    3.2946878803064125E-7    -0.04590374921641806     -0.04947807825765795     0.04948071400796228      -0.04590638496672228     0.04590638496672228      -0.04948071400796228     0.04947807825765795      0.04590374921641806
0.13277552079507576       8.605127860337609E-4     -0.016032736192088275    -2.9031403474397305E-7   -0.04637834426033629     -0.04982039540447128     0.0498180728921934       -0.046376021748058306    0.046376021748058306     -0.0498180728921934      0.04982039540447128      0.04637834426033629
0.13476724117144978       8.515944293940419E-4     -0.016077797001371234    -2.0706021602709043E-7   -0.04653103038618974     -0.049937408103765846    0.04993575162203771      -0.046529373904461505    0.046529373904461505     -0.04993575162203771     0.049937408103765846     0.04653103038618974
0.1353546713894451        8.489640841672847E-4     -0.016091087060223937    -1.8250566034853303E-7   -0.046576063034978646    -0.04997191937164773     0.04997045932636503      -0.04657460298969583     0.04657460298969583      -0.04997045932636503     0.04997191937164773      0.046576063034978646
0.136756898186178         8.422016540401097E-4     -0.016123484060364027    -3.7868876238734983E-7   -0.04668756362806141     -0.050056370244221784    0.050053340734122785     -0.04668453411796229     0.04668453411796229      -0.050053340734122785    0.050056370244221784     0.04668756362806141
0.13765207987174022       8.379366247661091E-4     -0.016143994652967033    -4.867858181712304E-7    -0.046758057852641574    -0.05010980435170594     0.05010591006516067      -0.04675416356609618     0.04675416356609618      -0.05010591006516067     0.05010980435170594      0.046758057852641574
0.138963558253315         8.316881795847017E-4     -0.016174043523744852    -6.451524984316798E-7    -0.04686133482205889     -0.05018808754039763     0.05018292632041027      -0.04685617360207141     0.04685617360207141      -0.05018292632041027     0.05018808754039763      0.04686133482205889
0.13951861762312684       8.291864100579393E-4     -0.016186966562055007    -5.181765448288158E-7    -0.04690459957222846     -0.05022134521246015     0.050217199800101614     -0.046900454159869806    0.046900454159869806     -0.050217199800101614    0.05022134521246015      0.04690459957222846
0.13979399759354824       8.279976260939378E-4     -0.016193377248805572    -4.575879975093379E-7    -0.046925966846218886    -0.05023795735059457     0.05023429664661459      -0.04692230614223879     0.04692230614223879      -0.05023429664661459     0.05023795735059457      0.046925966846218886
0.14063460239249378       8.243688309294962E-4     -0.01621294604329275     -2.726398200512698E-7    -0.046991191027299484    -0.05028866635101739     0.05028648523245709      -0.04698900990873904     0.04698900990873904      -0.05028648523245709     0.05028866635101739      0.046991191027299484
0.14104151079845872       8.22576578122537E-4      -0.016222603671781625    -3.4422305959642377E-7   -0.047024034751338206    -0.050314341063828275    0.050311587279351616     -0.0470212809668614      0.0470212809668614       -0.050311587279351616    0.050314341063828275     0.047024034751338206
0.14138022185638505       8.210847046802156E-4     -0.01623064269362186     -4.0380903629455784E-7   -0.04705137390765034     -0.05033571272637113     0.05033248225408088      -0.04704814343535996     0.04704814343535996      -0.05033248225408088     0.05033571272637113      0.04705137390765034
0.14358750296474138       8.110499490362084E-4     -0.016282620797779035    -6.445945053281613E-7    -0.04722834087328599     -0.05047254066943076     0.050467383913388224     -0.04722318411724334     0.04722318411724334      -0.050467383913388224    0.05047254066943076      0.04722834087328599
0.14686153382659445       7.961822674722845E-4     -0.016361616536597807    -5.296827139647151E-9    -0.04749250626215741     -0.050677235332046475    0.050677192957429465     -0.047492463887540276    0.047492463887540276     -0.050677192957429465    0.050677235332046475     0.04749250626215741
0.1479626157416215        7.913403503100671E-4     -0.016387896316727754    2.2906487530788527E-7    -0.0475800919900619      -0.0507454533913021      0.05074728591030466      -0.047581924509064344    0.047581924509064344     -0.05074728591030466     0.0507454533913021       0.0475800919900619
0.14873885110464152       7.881931930989107E-4     -0.01640679288508366     1.6826932660062222E-7    -0.04764331919174676     -0.05079609196414233     0.05079743811875523      -0.04764466534635954     0.04764466534635954      -0.05079743811875523     0.05079609196414233      0.04764331919174676
0.15222625161919615       7.734424179622782E-4     -0.01649199049313648     -3.6335965823268987E-7   -0.04793054008211784     -0.051024309753966886    0.051021402876701115     -0.04792763320485196     0.04792763320485196      -0.051021402876701115    0.051024309753966886     0.04793054008211784
0.15235772498933686       7.728863206309545E-4     -0.016495202403157105    -3.8340182259232977E-7   -0.04794136817549981     -0.05103291345802355     0.0510298462434429       -0.04793830096091905     0.04793830096091905      -0.0510298462434429      0.05103291345802355      0.04794136817549981
0.15599237488773304       7.576300003027955E-4     -0.016585981123438967    -2.44622894216397E-8     -0.04824278121886901     -0.05127330122008013     0.05127310552176484      -0.04824258552055363     0.04824258552055363      -0.05127310552176484     0.05127330122008013      0.04824278121886901
0.15665570569765713       7.550615700458736E-4     -0.016602839132298056    -5.006498049095996E-8    -0.04829859451672441     -0.051318840796907836    0.05131844027706399      -0.04829819399688047     0.04829819399688047      -0.05131844027706399     0.051318840796907836     0.04829859451672441
0.1568839520621199        7.541777955253058E-4     -0.016608639826576992    -5.887464388904494E-8    -0.04831779938725594     -0.0513345105693571      0.05133403957220607      -0.048317328390104816    0.048317328390104816     -0.05133403957220607     0.0513345105693571       0.04831779938725594
0.15837206990720948       7.481402980497661E-4     -0.016646493523526755    -8.089281803370972E-8    -0.04844352354575288     -0.05143608473795189     0.051435437595407696     -0.048442876403208594    0.048442876403208594     -0.051435437595407696    0.05143608473795189      0.04844352354575288
0.16112794701393235       7.370139818229336E-4     -0.016716569247689977    -4.2695682085547613E-7   -0.04867738760670751     -0.05162544353399917     0.05162202787943242      -0.04867397195214064     0.04867397195214064      -0.05162202787943242     0.05162544353399917      0.04867738760670751
0.16149960122206736       7.355210926015498E-4     -0.016726170773530863    -3.9506529991908945E-7   -0.048709050396589196    -0.051651134766995316    0.05164797424459606      -0.04870588987418981     0.04870588987418981      -0.05164797424459606     0.051651134766995316     0.048709050396589196
0.16242939072555754       7.317862425782397E-4     -0.01675019148350519     -3.1528037950686986E-7   -0.04878826308687713     -0.05171540805719001     0.05171288581415405      -0.04878574084384105     0.04878574084384105      -0.05171288581415405     0.05171540805719001      0.04878826308687713
0.1640221340338446        7.250808263789476E-4     -0.016791616208592344    -2.2390721487920305E-7   -0.04892558260187867     -0.05182590590739438     0.05182411464967544      -0.04892379134415961     0.04892379134415961      -0.05182411464967544     0.05182590590739438      0.04892558260187867
0.16477362623615133       7.224003942119101E-4     -0.016811083804810445    -2.58997943981232E-7     -0.04898948661778346     -0.05187908819463103     0.05187701621107928      -0.048987414634231584    0.048987414634231584     -0.05187701621107928     0.05187908819463103      0.04898948661778346
0.16657920122385228       7.159602458481929E-4     -0.01685785768309445     -3.433087892200068E-7    -0.04914302579274385     -0.05200686677613656     0.05200412030582289      -0.04914027932243007     0.04914027932243007      -0.05200412030582289     0.05200686677613656      0.04914302579274385
0.16698184567020063       7.144851846158324E-4     -0.01686828419696955     -3.545880561410952E-7    -0.049177300573901565    -0.05203524131236482     0.05203240460791578      -0.0491744638694524      0.0491744638694524       -0.05203240460791578     0.05203524131236482      0.049177300573901565
0.16720944726389056       7.137030048189869E-4     -0.016874338809018452    -3.754264239289322E-7    -0.049197112123113104    -0.05205192414238898     0.05204892073099764      -0.04919410871172164     0.04919410871172164      -0.05204892073099764     0.05205192414238898      0.049197112123113104
0.16827945721050072       7.09265482342504E-4      -0.016902666974658576    -3.482079496329761E-7    -0.04929086279108926     -0.0521279247204592      0.05212513905686223      -0.04928807712749217     0.04928807712749217      -0.05212513905686223     0.0521279247204592       0.04929086279108926
0.1714324717655954        6.964878051145116E-4     -0.016986202370894033    -3.1442751102001736E-7   -0.04956688921249717     -0.05235284043295514     0.05235032501286708      -0.04956437379240898     0.04956437379240898      -0.05235032501286708     0.05235284043295514      0.04956688921249717
0.17310814020187          6.905434358313995E-4     -0.017031102891980128    -2.384703446959031E-7    -0.04971317568565638     -0.05247534942898191     0.05247344166622443      -0.04971126792289878     0.04971126792289878      -0.05247344166622443     0.05247534942898191      0.04971317568565638
0.17518581653350943       6.837665858112969E-4     -0.017086555636459725    -2.0229091580013943E-7   -0.04989294290141978     -0.0526280092446649      0.052626390917338596     -0.04989132457409337     0.04989132457409337      -0.052626390917338596    0.0526280092446649       0.04989294290141978
0.17657234573874742       6.785273961657466E-4     -0.01712468727071581     -2.2285201017218422E-7   -0.05001789842785662     -0.05273200801251954     0.05273022519643825      -0.05001611561177522     0.05001611561177522      -0.05273022519643825     0.05273200801251954      0.05001789842785662
0.17692591757630202       6.77157085273778E-4      -0.017134250724991296    -2.1162865867435448E-7   -0.05004928451906103     -0.052757912860156075    0.052756219830886776     -0.05004759148979161     0.05004759148979161      -0.052756219830886776    0.052757912860156075     0.05004928451906103
0.1781246272770501        6.725113392477245E-4     -0.017166673571482622    -1.7357828563450669E-7   -0.05015569234909495     -0.05284573770608578     0.0528443490798008       -0.05015430372280985     0.05015430372280985      -0.0528443490798008      0.05284573770608578      0.05015569234909495
0.18055639267894152       6.64730654951571E-4      -0.017232245832207144    -1.2229193930670995E-7   -0.050367765354475506    -0.05302668797428173     0.053025709638767377     -0.050366787018961044    0.050366787018961044     -0.053025709638767377    0.05302668797428173      0.050367765354475506
0.18338978739681822       6.550358995925476E-4     -0.01730947691790282     -6.130240047668047E-8    -0.05061860416412527     -0.053238747762495396    0.053238257343291684     -0.05061811374492145     0.05061811374492145      -0.053238257343291684    0.053238747762495396     0.05061860416412527
0.18481678278850489       6.494156843045845E-4     -0.01734953146688681     -7.659599332286737E-8    -0.050750069416024536    -0.053347732153242816    0.05334711938529632      -0.05074945664807796     0.05074945664807796      -0.05334711938529632     0.053347732153242816     0.050750069416024536
0.1875716994974173        6.404278328890798E-4     -0.017426630312599115    -1.3546840908691985E-7   -0.05099957714565552     -0.05356128847721178     0.05356020472993918      -0.05099849339838283     0.05099849339838283      -0.05356020472993918     0.05356128847721178      0.05099957714565552
0.19025120459479938       6.31686010094784E-4      -0.017501618695884923    -1.9272928293645845E-7   -0.05124225498459693     -0.05376899902497601     0.05376745719071261      -0.05124071315033344     0.05124071315033344      -0.05376745719071261     0.05376899902497601      0.05124225498459693
0.19032938053268622       6.314025598861474E-4     -0.01750381291266096     -1.9267852561261298E-7   -0.05124940433231304     -0.05377501457185757     0.05377347314365276      -0.051247862904108134    0.051247862904108134     -0.05377347314365276     0.05377501457185757      0.05124940433231304
0.19071556727041433       6.300507738393778E-4     -0.017514528372010896    -1.995136542612378E-7    -0.05128428162297097     -0.053804484718328424    0.05380288860909442      -0.05128268551373688     0.05128268551373688      -0.05380288860909442     0.053804484718328424     0.05128428162297097
0.19124540404906545       6.281374800343031E-4     -0.017529193478102525    -2.121427154415804E-7    -0.05133215404510073     -0.053844703965237876    0.053843006823514436     -0.051330456903377196    0.051330456903377196     -0.053843006823514436    0.053844703965237876     0.05133215404510073
0.19136831684181657       6.276936295988277E-4     -0.01753259552420114     -2.1507243501190073E-7   -0.051343259603145806    -0.053854034121541064    0.05385231354206106      -0.05134153902366572     0.05134153902366572      -0.05385231354206106     0.053854034121541064     0.051343259603145806
0.19168698701752032       6.266839749633067E-4     -0.017541610268178576    -2.2531464929201575E-7   -0.05137236411320627     -0.05387910001305943     0.05387729749586519      -0.051370561596011936    0.051370561596011936     -0.05387729749586519     0.05387910001305943      0.05137236411320627
0.1925251222716071        6.238383315786398E-4     -0.01756520271471338     -2.6278825676178926E-7   -0.05144898263400989     -0.053944335960324385    0.05394223365427038      -0.0514468803279558      0.0514468803279558       -0.05394223365427038     0.053944335960324385     0.05144898263400989
0.19422625469527624       6.183338759604307E-4     -0.017613392039991987    -2.1444599366034634E-7   -0.05160436615202973     -0.05407770165587138     0.05407598608792219      -0.051602650584080444    0.051602650584080444     -0.05407598608792219     0.05407770165587138      0.05160436615202973
0.1952469585851767        6.15031123521457E-4      -0.01764230632736855     -1.8543994139314939E-7   -0.051697598494828294    -0.054157722988914046    0.05415623946938299      -0.05169611497529714     0.05169611497529714      -0.05415623946938299     0.054157722988914046     0.051697598494828294
0.1952534523887534        6.150087610352664E-4     -0.01764249055203581     -1.8513363952623265E-7   -0.051698194668594995    -0.05415822971273598     0.05415674864361986      -0.05169671359947878     0.05169671359947878      -0.05415674864361986     0.05415822971273598      0.051698194668594995
0.1952985692695671        6.148640324040811E-4     -0.017643774409011558    -1.8523553936617721E-7   -0.05170233610438397     -0.054161792234000215    0.05416031034968538      -0.05170085422006903     0.05170085422006903      -0.05416031034968538     0.054161792234000215     0.05170233610438397