% Model:              Cylinder_slice_potential_6.mph
% Version:            COMSOL 6.2.0.415
% Date:               May 21 2024, 17:44
% Dimension:          1
% Nodes:              1134
% Expressions:        11
% Description:        Line graph
% Arc length (m)          Magnetic scalar potential Magnetic scalar potential Magnetic scalar potential Magnetic scalar potential Magnetic scalar potential Magnetic scalar potential Magnetic scalar potential Magnetic scalar potential Magnetic scalar potential Magnetic scalar potential Magnetic scalar potential
0                         3.7915565534004015E-6    -0.024176625993658985    -3.8235290675856246E-7   -0.07252382427949718     -0.07253899050571079     0.07253593168245669      -0.07252076545624306     0.07252076545624306      -0.07253593168245669     0.07253899050571079      0.07252382427949718
2.9243015066460423E-5     3.1858544112178486E-6    -0.024176575511154083    7.238712680467193E-7     -0.0725204593395676      -0.0725332027572125      0.07253899372735684      -0.07252625030971194     0.07252625030971194      -0.07253899372735684     0.0725332027572125       0.0725204593395676
0.0015457171894379545     -2.311923745103242E-5    -0.024178290870970932    5.672162483804852E-5     -0.07235422458846263     -0.07226174763865856     0.07271552063736289      -0.072807997587167       0.072807997587167        -0.07271552063736289     0.07226174763865856      0.07235422458846263
0.004464416522767578      -7.374763282963793E-5    -0.024181592357826735    1.6449834057437752E-4    -0.07203427897684193     -0.07173928844552344     0.0730552751701184       -0.07335026570143693     0.07335026570143693      -0.0730552751701184      0.07173928844552344      0.07203427897684193
0.007239819130690549      -1.1659754615157006E-4   -0.024182007503361795    2.6502092645761487E-4    -0.07171913389655804     -0.0712527437119518      0.07337291112361267      -0.07383930130821892     0.07383930130821892      -0.07337291112361267     0.0712527437119518       0.07171913389655804
0.007991393534192738      -1.3199700554942227E-4   -0.024181979311352922    2.933635122814919E-4     -0.07163647789603161     -0.07110848987383396     0.07345539797208586      -0.07398338599428352     0.07398338599428352      -0.07345539797208586     0.07110848987383396      0.07163647789603161
0.011123642056800937      -1.961755269614372E-4    -0.024181861818822935    4.114835841733186E-4     -0.07129200217369838     -0.07050730006585267     0.07379916873923918      -0.0745838708470849      0.0745838708470849       -0.07379916873923918     0.07050730006585267      0.07129200217369838
0.01420140225118469       -2.623522427472644E-4    -0.024183712009169273    5.307388799962008E-4     -0.07095288499301754     -0.0699034760220285      0.07414938706199807      -0.0751987960329871      0.0751987960329871       -0.07414938706199807     0.0699034760220285       0.07095288499301754
0.016251250301445884      -3.025180619329836E-4    -0.02418293220304111     6.087156071391521E-4     -0.07071897030443267     -0.06950889805670075     0.07437862291381393      -0.07558869516154586     0.07558869516154586      -0.07437862291381393     0.06950889805670075      0.07071897030443267
0.021414743244873816      -3.994990240587547E-4    -0.0241977376035916      8.068682408475135E-4     -0.07016473789550229     -0.06856674179926725     0.07502168772604734      -0.07661968382228236     0.07661968382228236      -0.07502168772604734     0.06856674179926725      0.07016473789550229
0.02234860288953598       -4.1559940593429665E-4   -0.02419921007480346     8.432701660641346E-4     -0.07005574837202248     -0.06839335074828526     0.07513951207679831      -0.07680190970053552     0.07680190970053552      -0.07513951207679831     0.06839335074828526      0.07005574837202248
0.028457285623487365      -5.309659111184516E-4    -0.024204606184726533    0.0010736916604252888    -0.06938098373471537     -0.06725712009024151     0.07584665337364385      -0.07797051701811762     0.07797051701811762      -0.07584665337364385     0.06725712009024151      0.06938098373471537
0.029675989486855806      -5.576956903200532E-4    -0.02420463955713867     0.0011211311472259216    -0.06924478546315245     -0.06701400270187219     0.07598305187967958      -0.07821383464095977     0.07821383464095977      -0.07598305187967958     0.06701400270187219      0.06924478546315245
0.033161993610787734      -6.198541954550589E-4    -0.024216150542920176    0.0012517071870812068    -0.06888133127134584     -0.06640191448952557     0.07641557198617525      -0.07889498876799544     0.07889498876799544      -0.07641557198617525     0.06640191448952557      0.06888133127134584
0.035082395584665964      -6.540966437456665E-4    -0.024222491820506262    0.00132364011537518      -0.06868110828750942     -0.06606472171252671     0.0766538426355282       -0.0792702292105108      0.0792702292105108       -0.0766538426355282      0.06606472171252671      0.06868110828750942
0.04198732951629965       -7.825874026747728E-4    -0.024236844102788677    0.0015831650453277018    -0.06794304693240479     -0.06481269732170566     0.07747801768432733      -0.08060836729502634     0.08060836729502634      -0.07747801768432733     0.06481269732170566      0.06794304693240479
0.044134310536488065      -8.29082079392413E-4     -0.02423946897455837     0.0016664492066724304    -0.06771077425577024     -0.06439444593820055     0.07772603959158003      -0.08104236790914962     0.08104236790914962      -0.07772603959158003     0.06439444593820055      0.06771077425577024
0.045909296339906716      -8.602397510507816E-4    -0.02424745154936022     0.0017326958180388912    -0.06753205087802665     -0.06409109187382352     0.07795265841813467      -0.08139361742233772     0.08139361742233772      -0.07795265841813467     0.06409109187382352      0.06753205087802665
0.04781618827979593       -8.937128711380662E-4    -0.024256027340512954    0.0018038654741659272    -0.06734004586715128     -0.06376519438259902     0.07819611817592645      -0.08177096966047866     0.08177096966047866      -0.07819611817592645     0.06376519438259902      0.06734004586715128
0.05551737340911194       -0.0010348865740777316   -0.024281239160054036    0.002092279024444389     -0.06654437453054002     -0.06240482823422908     0.07914306042978418      -0.08328260672609508     0.08328260672609508      -0.07914306042978418     0.06240482823422908      0.06654437453054002
0.05732935603824939       -0.0010726491023011805   -0.02428906577629018     0.0021593333178330145    -0.06637516226214085     -0.06208456585293612     0.07935923239560022      -0.08364982880480491     0.08364982880480491      -0.07935923239560022     0.06208456585293612      0.06637516226214085
0.057709091694193713      -0.001080562963170737    -0.024290705993587226    0.0021733858289743235    -0.06633970059120586     -0.0620174487385229      0.07940453537031748      -0.08372678722300039     0.08372678722300039      -0.07940453537031748     0.0620174487385229       0.06633970059120586
0.059633373991631336      -0.001122074781318027    -0.0242948850299414      0.002248211244691781     -0.06613595967369312     -0.06164766054842101     0.07963335050595526      -0.08412164963122731     0.08412164963122731      -0.07963335050595526     0.06164766054842101      0.06613595967369312
0.06212095193716302       -0.0011743191164502325   -0.02430442151967344     0.0023443579450146933    -0.06588447101186201     -0.061187194546061086    0.07994205810617863      -0.08463933457197952     0.08463933457197952      -0.07994205810617863     0.061187194546061086     0.06588447101186201
0.06353275879562358       -0.0012000839508464936   -0.024311281684830665    0.002397588623396752     -0.06574365846259798     -0.060943322659212006    0.08012403164638601      -0.08492436744977194     0.08492436744977194      -0.08012403164638601     0.060943322659212006     0.06574365846259798
0.06719839253992403       -0.0012669801029747186   -0.024329093507135614    0.0025357974511411125    -0.06537805092279184     -0.06031013051089296     0.08059651012002184      -0.08566443053192069     0.08566443053192069      -0.08059651012002184     0.06031013051089296      0.06537805092279184
0.07187000420020793       -0.0013538494656897616   -0.024350275742166805    0.002710756896260688     -0.06491549857283718     -0.059500100710078156    0.08118615588016362      -0.08660155374292264     0.08660155374292264      -0.08118615588016362     0.059500100710078156     0.06491549857283718
0.07272680908466991       -0.0013679822787005219   -0.024352368683213048    0.002742252393678956     -0.06482406103232435     -0.05935213191752229     0.08129015106695389      -0.08676208018175596     0.08676208018175596      -0.08129015106695389     0.05935213191752229      0.06482406103232435
0.07676034727493493       -0.0014537346005308348   -0.024372538387408313    0.0028967964191186973    -0.06443789868681182     -0.058622960284688504    0.08179733163763803      -0.08761227003976135     0.08761227003976135      -0.08179733163763803     0.058622960284688504     0.06443789868681182
0.08211162685164643       -0.0015528850681605297   -0.024404982042676448    0.003097337248966427     -0.0639313672684847      -0.057719826995842605    0.08249852498757397      -0.08871006526021608     0.08871006526021608      -0.08249852498757397     0.057719826995842605     0.0639313672684847
0.08309274639205007       -0.0015710636102899684   -0.02441093035909113     0.00313410500217234      -0.06383849828916396     -0.057554243848004116    0.08262708386538278      -0.08891133830654263     0.08891133830654263      -0.08262708386538278     0.057554243848004116     0.06383849828916396
0.08600787740168567       -0.0016189533613120257   -0.024422507121533335    0.0032413320358313583    -0.06354009994389864     -0.05706428649865057     0.08299494278530138      -0.08947075623054947     0.08947075623054947      -0.08299494278530138     0.05706428649865057      0.06354009994389864
0.0871449081346914        -0.0016430504916063317   -0.024429930838408734    0.003284924013859935     -0.06343619744299914     -0.05686399547657384     0.08314338758745327      -0.08971558955387858     0.08971558955387858      -0.08314338758745327     0.05686399547657384      0.06343619744299914
0.09187855022228303       -0.0017433707264427009   -0.024460836967528786    0.0034664044399271825    -0.06300363459576303     -0.05603015168999226     0.08376138720940965      -0.09073487011518044     0.09073487011518044      -0.08376138720940965     0.05603015168999226      0.06300363459576303
0.09431548858389224       -0.0017883604422943371   -0.024479336554880826    0.0035577871524873485    -0.06278358193928175     -0.05563014017010445     0.08409243739000317      -0.0912458791591805      0.0912458791591805       -0.08409243739000317     0.05563014017010445      0.06278358193928175
0.09520759284397468       -0.0018029072399889405   -0.02448472632705822     0.0035905705851767273    -0.06269771112044563     -0.055486082160489905    0.08421064684190369      -0.09142227580185944     0.09142227580185944      -0.08421064684190369     0.055486082160489905     0.06269771112044563
0.09796704725203735       -0.0018479033540281906   -0.024501397955318353    0.0036919762076964295    -0.062432095743225724    -0.05504048232711299     0.0845762919886844       -0.09196790540479713     0.09196790540479713      -0.0845762919886844      0.05504048232711299      0.062432095743225724
0.10623604716198669       -0.001998722018417882    -0.02456645042338535     0.004008783035694087     -0.061661663164215466    -0.05366677509054396     0.08573703937609663      -0.0937319274497681      0.0937319274497681       -0.08573703937609663     0.05366677509054396      0.061661663164215466
0.10657486116264661       -0.0020049016623424855   -0.02456911588319895     0.004021763878601237     -0.061630095459876875    -0.053610488810506965    0.08578459983931683      -0.09380420648868674     0.09380420648868674      -0.08578459983931683     0.053610488810506965     0.061630095459876875
0.10742854128282413       -0.0020222795095979802   -0.02457650133067759     0.004054359082532984     -0.06155662668109678     -0.053467508642704886    0.08590238130296873      -0.09399149934136063     0.09399149934136063      -0.08590238130296873     0.053467508642704886     0.06155662668109678
0.1076471769796554        -0.0020261525976941032   -0.024578432294336736    0.00406261632876615      -0.06153713676333382     -0.05343252637255742     0.08593345700268659      -0.09403806739346299     0.09403806739346299      -0.08593345700268659     0.05343252637255742      0.06153713676333382
0.10802022388000793       -0.0020328801366700368   -0.024581668210686764    0.004076429905242469     -0.06150504528443049     -0.05337352473775036     0.08598496397969008      -0.09411648452637021     0.09411648452637021      -0.08598496397969008     0.05337352473775036      0.06150504528443049
0.11064386722249449       -0.0020808743826912176   -0.02460242333760293     0.004176630657112183     -0.06126249614974249     -0.05293899861897765     0.08635204387587508      -0.09467554140663995     0.09467554140663995      -0.08635204387587508     0.05293899861897765      0.06126249614974249
0.11626076218005069       -0.0021836241101799367   -0.024646857489848788    0.004391148037888082     -0.06074322853835391     -0.052008732097634194    0.08713791640073881      -0.09587241284145856     0.09587241284145856      -0.08713791640073881     0.052008732097634194     0.06074322853835391
0.1167930810935768        -0.0021941035824432223   -0.024651885986271466    0.004411871023921981     -0.06069638102801291     -0.051919966698240054    0.08721493488961587      -0.09599134921938875     0.09599134921938875      -0.08721493488961587     0.051919966698240054     0.06069638102801291
0.12122493524046521       -0.002282765850464024    -0.02469305263342696     0.004581130446588854     -0.06032016781485352     -0.051189104412997434    0.08783814798570824      -0.09696921138756433     0.09696921138756433      -0.08783814798570824     0.05118910441299742      0.06032016781485352
0.12193468593810765       -0.0022969648977468654   -0.024699645372170117    0.004608236932799533     -0.06025991818080595     -0.0510720585898185      0.08793795405221473      -0.0971258136432022      0.0971258136432022       -0.08793795405221473     0.05107205858981849      0.06025991818080595
0.12580894342489257       -0.0023635063902746755   -0.02473561017416773     0.004754559839964734     -0.0599156039431936      -0.05046157838209492     0.08849805710181279      -0.09795208266291147     0.09795208266291147      -0.08849805710181279     0.050461578382094904     0.0599156039431936
0.12593898520749822       -0.002365734042322474    -0.0247368096149181      0.004759462683774593     -0.05990404619430087     -0.050441110025011       0.08851681149520772      -0.0979797476644976      0.0979797476644976       -0.08851681149520772     0.05044111002501099      0.05990404619430087
0.12604835101514547       -0.002367801796408189    -0.024737996307352312    0.004763596466198418     -0.059895206650079635    -0.0504239994644469      0.08853277119403423      -0.09800397837966697     0.09800397837966697      -0.08853277119403423     0.050423999464446895     0.059895206650079635
0.13277131612225693       -0.00249491134616055     -0.024810944992135077    0.005017709480070124     -0.05935181974844585     -0.04937217436380366     0.08951385020436464      -0.09949349558900683     0.09949349558900683      -0.08951385020436464     0.04937217436380365      0.05935181974844585
0.13400841640692693       -0.002518038509841638    -0.024822543849562534    0.005065580835171066     -0.05924138522768661     -0.049169231188320076    0.0896938778696886       -0.09976603190905511     0.09976603190905511      -0.0896938778696886      0.04916923118832006      0.05924138522768661
0.13508488932141957       -0.002538761532338933    -0.024832615371973104    0.005107291249248127     -0.059146204183604674    -0.04899115805424895     0.08984948804823396      -0.10000453417758967     0.10000453417758967      -0.08984948804823396     0.04899115805424893      0.059146204183604674
0.13557708005972907       -0.002549314953972871    -0.024838098069692695    0.005126437434308413     -0.05910717437979018     -0.048909914563898704    0.089921414038366        -0.10011867385425746     0.10011867385425746      -0.089921414038366       0.048909914563898683     0.05910717437979018
0.1364408305933912        -0.002567965531676703    -0.024846692569716902    0.005159676610891486     -0.05903730232893816     -0.048765440202231364    0.09004285308936325      -0.10031471521607002     0.10031471521607002      -0.09004285308936325     0.048765440202231364     0.05903730232893816
0.13848836338692055       -0.0026076553523878723   -0.024864128024522654    0.005241692431773465     -0.058840925051249854    -0.04841030364169837     0.09034384309588608      -0.10077446450543756     0.10077446450543756      -0.09034384309588608     0.04841030364169836      0.058840925051249854
0.14070905161913064       -0.0026507016557586202   -0.024883037958191478    0.005330644153994098     -0.05862794057011528     -0.0480251339470808      0.0906702871790336       -0.10127309380206803     0.10127309380206803      -0.0906702871790336      0.04802513394708079      0.05862794057011528
0.1414102832484039        -0.0026624843063458455   -0.024893515373600184    0.0053556078396692144    -0.05858308337481538     -0.04793314614943201     0.09077800886678573      -0.10142794609216907     0.10142794609216907      -0.09077800886678573     0.047933146149432004     0.05858308337481538
0.14325799456339586       -0.002693531018875303    -0.024921122854772416    0.005421385940029025     -0.05846488684195175     -0.047690762766450547    0.09106185028668275      -0.10183597436218393     0.10183597436218393      -0.09106185028668275     0.047690762766450547     0.05846488684195175
0.14423079343534098       -0.0027099007750624755   -0.02493121160765963     0.005458004463040778     -0.058381418520940725    -0.04754181542069083     0.09120585112501706      -0.10204545422526692     0.10204545422526692      -0.09120585112501706     0.04754181542069083      0.058381418520940725
0.14531846523226294       -0.002729585495790087    -0.02494364569164472     0.005499610423605553     -0.05829166637209213     -0.04737332438893179     0.0913702077777762       -0.10228854976093651     0.10228854976093651      -0.0913702077777762      0.04737332438893179      0.05829166637209213
0.1475239900989676        -0.0027748954703387813   -0.02497052364828217     0.005583448949987967     -0.0581275660855722      -0.04702798420421708     0.0916955758041208       -0.10279515768547592     0.10279515768547592      -0.0916955758041208      0.04702798420421708      0.0581275660855722
0.1509469752486747        -0.002845216767711194    -0.025012238365632836    0.005713566744220374     -0.0578728816554394      -0.046492014584594635    0.0922005485383576       -0.10358141560920237     0.10358141560920237      -0.0922005485383576      0.046492014584594635     0.0578728816554394
0.15316428192222356       -0.002882374411699849    -0.025041936464938346    0.00579761229492126      -0.05770010903852969     -0.04617061139173031     0.09255150975110035      -0.10408100739789974     0.10408100739789974      -0.09255150975110035     0.04617061139173031      0.05770010903852969
0.15543648513358074       -0.002925493453889493    -0.0250780951167695      0.0058843620687183094    -0.057547823983214244    -0.045845850167656285    0.09292074671740272      -0.1046227205329607      0.1046227205329607       -0.09292074671740272     0.045845850167656285     0.057547823983214244
0.15891257518908505       -0.0029928051335653683   -0.02512679436448617     0.006022249464784385     -0.05727699550145171     -0.04530577496719025     0.09348377068546532      -0.10545499121972678     0.10545499121972678      -0.09348377068546532     0.04530577496719025      0.05727699550145171
0.16226224659100397       -0.0030542528814253393   -0.025166268859378442    0.0061488454946272905    -0.05701193036247684     -0.0447949188367755      0.09398568279379381      -0.10620269431949515     0.10620269431949515      -0.09398568279379381     0.0447949188367755       0.05701193036247684
0.1663255411825312        -0.0031246323507071604   -0.025227246397316362    0.006306171864089787     -0.05670631643700426     -0.04420778703417563     0.09465716194689391      -0.10715569134972253     0.10715569134972253      -0.09465716194689391     0.04420778703417563      0.05670631643700426
0.1670015844133305        -0.003136411527349012    -0.02523897212720147     0.006332125519663345     -0.056661237357649046    -0.04411559124825301     0.09477259540555977      -0.10731824151495578     0.10731824151495578      -0.09477259540555977     0.04411559124825301      0.056661237357649046
0.16869587193167704       -0.0031659322902994717   -0.025268358942840977    0.006397170109551122     -0.05654826097091738     -0.04388453180971952     0.09506189268612847      -0.10772562184732633     0.10772562184732633      -0.09506189268612847     0.04388453180971952      0.05654826097091738
0.17077598684737103       -0.003211605036449388    -0.02530034855184691     0.00647910738428188      -0.056407826191311974    -0.043561406045514436    0.09539426511976946      -0.10824068526556699     0.10824068526556699      -0.09539426511976946     0.043561406045514436     0.056407826191311974
0.17288807915541354       -0.0032579799050216057   -0.025332829933817184    0.006562304272297592     -0.056265232522304386    -0.043233312902217984    0.0957317470805987       -0.1087636667006851      0.1087636667006851       -0.0957317470805987      0.043233312902217984     0.056265232522304386
0.17602361582282255       -0.003322708612858067    -0.02538153013223369     0.006685852174645695     -0.05604659892383441     -0.04275576447240216     0.0962425818695677       -0.10953341632099994     0.10953341632099994      -0.0962425818695677      0.04275576447240216      0.05604659892383441
0.1773257601867073        -0.00334324455880089     -0.025404458479816285    0.006736056359534301     -0.05595563911891342     -0.04258266088370989     0.0964711117599843       -0.10984408999518783     0.10984408999518783      -0.0964711117599843      0.04258266088370989      0.05595563911891342
0.1819552587297734        -0.0034162557658986587   -0.025485975364328135    0.006914546707643035     -0.05563225079420958     -0.041967227730614974    0.09728360139175923      -0.11094862445535383     0.11094862445535383      -0.09728360139175923     0.04196722773061497      0.05563225079420958
0.1845705957565148        -0.003469357574088819    -0.025526885173890613    0.007017996951250133     -0.055447382864848946    -0.04156995256849369     0.09771392817849472      -0.11159135847485        0.11159135847485         -0.09771392817849472     0.04156995256849369      0.055447382864848946
0.1870819648790883        -0.0035203484177460708   -0.025566168689359202    0.00711733472105232      -0.05526986401936047     -0.04118847034837621     0.09812714811679475      -0.11220854178777902     0.11220854178777902      -0.09812714811679475     0.04118847034837621      0.05526986401936047
0.19313465645656003       -0.0036444464909015165   -0.025690369068977672    0.007356847537387724     -0.05493261003918515     -0.0403548240755791      0.09920960437468089      -0.11378739033828694     0.11378739033828694      -0.09920960437468089     0.0403548240755791       0.05493261003918515
0.19465939705831142       -0.003667065760389357    -0.025722902085643547    0.007415687691982717     -0.05484008700977848     -0.04017182396822108     0.09949732550408281      -0.11416558854564024     0.11416558854564024      -0.09949732550408281     0.04017182396822108      0.05484008700977848
0.19773361361840233       -0.003720114406937486    -0.025772956865782053    0.007541814732118212     -0.054591840482748274    -0.03971138285499835     0.10004590071194405      -0.11492635833969397     0.11492635833969397      -0.10004590071194405     0.03971138285499835      0.054591840482748274
0.19984015972468525       -0.0037462768243237887   -0.025809672206632852    0.00762833373268788      -0.05440823533779461     -0.03942312804049947     0.1004497979020025       -0.11543490519929762     0.11543490519929762      -0.1004497979020025      0.03942312804049947      0.05440823533779461
0.20257882008948677       -0.0038176713749695484   -0.025870127327873714    0.007733046149923161     -0.0543135401338676      -0.03904285463398942     0.10090722383337469      -0.11617790933325287     0.11617790933325287      -0.10090722383337469     0.03904285463398942      0.0543135401338676
0.20384830562976008       -0.003844014616264421    -0.025905710604023583    0.00778184210014388      -0.054277792644024075    -0.038901734178966405    0.10115647098011744      -0.11653252944517509     0.11653252944517509      -0.10115647098011744     0.038901734178966405     0.054277792644024075
0.20437921995750283       -0.0038550316808933106   -0.025920591963863197    0.0078022491613400444    -0.05426284260801605     -0.038842715884442824    0.10126070917516317      -0.11668083589873637     0.11668083589873637      -0.10126070917516317     0.038842715884442824     0.05426284260801605
0.20563640999359628       -0.003873001729831742    -0.025946515072468118    0.00785597745833417      -0.054161638843731166    -0.038669631924404216    0.10151745159107756      -0.1170094585104045      0.1170094585104045       -0.10151745159107756     0.038669631924404216     0.054161638843731166
0.20749364287073005       -0.003924899116045195    -0.025993438842546915    0.007930081463043361     -0.05410978890755769     -0.03841019244337692     0.1018508441477238       -0.11755044061190456     0.11755044061190456      -0.1018508441477238      0.03841019244337692      0.05410978890755769
0.20798827303944661       -0.003932410987286482    -0.026002772522688077    0.007950425576643896     -0.054071437236061615    -0.03834179328691569     0.10194519790006684      -0.11767484184921276     0.11767484184921276      -0.10194519790006684     0.03834179328691569      0.054071437236061615
0.20922410632662317       -0.00396157031151021     -0.02602476456642243     0.00799988541060364      -0.05399789267987316     -0.03815161143383232     0.10215069471866142      -0.11799697596470224     0.11799697596470224      -0.10215069471866142     0.03815161143383232      0.05399789267987316
0.21143266026250726       -0.004004959139037523    -0.0260641461965314      0.008088876314931204     -0.053846851607944425    -0.03782701505179434     0.10253802557124396      -0.11855786212739403     0.11855786212739403      -0.10253802557124396     0.03782701505179434      0.053846851607944425
0.21185824108114926       -0.004015320604558718    -0.026075162846590387    0.00810485689525948      -0.053836702167850664    -0.037775419749615805    0.10261427491169164      -0.11867555732992649     0.11867555732992649      -0.10261427491169164     0.037775419749615805     0.053836702167850664
0.21287124705340996       -0.004027779193246129    -0.02610215013368054     0.008144439733019353     -0.05378424985545646     -0.03767313308247196     0.10282865094662677      -0.11893976771961125     0.11893976771961125      -0.10282865094662677     0.03767313308247196      0.05378424985545646
0.21409904285669418       -0.004042879403239077    -0.026134859593188835    0.00819241540484604      -0.05372067596666048     -0.03754915835370419     0.10308848159247248      -0.11925999920542876     0.11925999920542876      -0.10308848159247248     0.03754915835370419      0.05372067596666048
0.21500865436493288       -0.004054674308690767    -0.026151490311435165    0.008231959648238859     -0.05363598095873157     -0.03741728372396852     0.10327296090987936      -0.1194916581446424      0.1194916581446424       -0.10327296090987936     0.03741728372396852      0.05363598095873157
0.21591060961319572       -0.004066369935646406    -0.026167981047830646    0.00827117104513048      -0.053551998834262794    -0.037286519091677205    0.10345588745272101      -0.1197213671953066      0.1197213671953066       -0.10345588745272101     0.037286519091677205     0.053551998834262794
0.2169264829392571        -0.004094562844407233    -0.02618480528059607     0.008313419946440859     -0.05348986174483921     -0.037111610367210314    0.10361896993873713      -0.119997221316366       0.119997221316366        -0.10361896993873713     0.037111610367210314     0.05348986174483921
0.21758663707965564       -0.004105184243632291    -0.02620885733231053     0.008340922859378116     -0.05347324904668367     -0.03705251207215454     0.10377989494717942      -0.12020063192170852     0.12020063192170852      -0.10377989494717942     0.03705251207215454      0.05347324904668367
0.21877464278688707       -0.0041370054140253704   -0.02624408196919112     0.008387606581714497     -0.05345583040876607     -0.036907808752664625    0.10400866140638054      -0.12055668306248196     0.12055668306248196      -0.10400866140638054     0.036907808752664625     0.05345583040876607
0.2197728642387156        -0.004163743143242756    -0.026273679460140063    0.008426832565902724     -0.05344119440329477     -0.036786221830323776    0.1042008823575455       -0.12085585493051648     0.12085585493051648      -0.1042008823575455      0.036786221830323776     0.05344119440329477
0.221393032236137         -0.004196498175240669    -0.026303251301503627    0.008491571992092706     -0.05333646228662136     -0.036550469585658704    0.1044830455224003       -0.12126903822336292     0.12126903822336292      -0.1044830455224003      0.036550469585658704     0.05333646228662136