% Model:              Cylinder_slice_potential_4.mph
% Version:            COMSOL 6.2.0.415
% Date:               May 17 2024, 21:55
% Dimension:          1
% Nodes:              703
% Expressions:        11
% Description:        Line graph
% Arc length (m)          Magnetic scalar potential Magnetic scalar potential Magnetic scalar potential Magnetic scalar potential Magnetic scalar potential Magnetic scalar potential Magnetic scalar potential Magnetic scalar potential Magnetic scalar potential Magnetic scalar potential Magnetic scalar potential
0                         -2.716330183859326E-7    -1.1237799156790247E-7   -1.2439317680976842E-7   -1.377972718720889E-6    -2.9144064515526646E-7   -7.037047692712729E-7    -3.8282730427103943E-7   3.8282730427103943E-7    7.037047692634666E-7     2.9144064515526646E-7    1.377972718720889E-6
0.0019350848740896831     -2.7625476596424063E-7   -1.1711624636634492E-7   2.0615818348690163E-4    8.237288756765734E-4     8.24833894740451E-4      8.244315731548131E-4     -8.25536592218669E-4     8.25536592218669E-4      -8.244315731548211E-4    -8.24833894740451E-4     -8.237288756765734E-4
0.002729136205988863      -2.778825083556852E-7    -1.1829700177927989E-7   2.908076017764386E-4     0.0011623197510836998    0.0011634312811171427    0.0011630295330944168    -0.0011641410631278385   0.0011641410631278385    -0.0011630295330944248   -0.0011634312811171427   -0.0011623197510836998
0.003925341480945615      -2.8275759508094806E-7   -1.2397616378653418E-7   4.1832774453238493E-4    0.0016723735344480128    0.0016735045648283565    0.0016731173914307737    -0.0016742484218110962   0.0016742484218110962    -0.0016731173914307815   -0.0016735045648283565   -0.0016723735344480128
0.006576018324231913      -2.799963582664219E-7    -1.1556499029952275E-7   7.008538280260571E-4     0.0028025086244167926    0.002803628609849878     0.002803202014358632     -0.002804321999791696    0.002804321999791696     -0.0028032020143586396   -0.002803628609849878    -0.0028025086244167926
0.014800376461884722      -2.714289614058533E-7    -8.946731517550329E-8    0.0015774584959114017    0.0063090227237772665    0.0063101084396229076    0.006309559527668365     -0.006310645243513983    0.006310645243513983     -0.00630955952766837     -0.0063101084396229076   -0.0063090227237772665
0.020273587764043526      -2.8578898742431507E-7   -8.954482543202209E-8    0.002160732469630513     0.008642089666070905     0.008643232822020622     0.008642626935023545     -0.008643770090973234    0.008643770090973234     -0.00864262693502355     -0.008643232822020622    -0.008642089666070905
0.02174248246695767       -2.8942119593080456E-7   -9.841616877721059E-8    0.0023172949855957813    0.009268305851484929     0.009269463536268672     0.00926889634849764      -0.009270054033281353    0.009270054033281353     -0.009268896348497646    -0.009269463536268672    -0.009268305851484929
0.02316690409386061       -2.719168026950181E-7    -6.554969803555899E-8    0.0024690753613477064    0.009875560962691326     0.009876648629902127     0.009875954260879588     -0.009877041928090358    0.009877041928090358     -0.009875954260879595    -0.009876648629902127    -0.009875560962691326
0.027665668049679754      -2.1663251616754097E-7   3.825277949980505E-8     0.002948444721330035     0.0117934603786263       0.011794326908690991     0.011793230861949352     -0.011794097392014008    0.011794097392014008     -0.01179323086194936     -0.011794326908690991    -0.0117934603786263
0.028856745047528828      -1.9938783114192604E-7   2.2162413749131198E-8    0.0030753666016149557    0.012301134118038785     0.01230193166936337      0.012301001143556343     -0.012301798694880892    0.012301798694880892     -0.012301001143556348    -0.01230193166936337     -0.012301134118038785
0.03249738914202805       -2.033724880548028E-7    -5.367035467143284E-9    0.0034632597250692314    0.013852616054194411     0.013853429544146652     0.013852648256407267     -0.01385346174635947     0.01385346174635947      -0.013852648256407274    -0.013853429544146652    -0.013852616054194411
0.03343517118135602       -2.1506958940251553E-7   -6.0696291103895845E-9   0.0035631244509440625    0.014252049455710115     0.014252909734067742     0.014252085873484827     -0.014252946151842423    0.014252946151842423     -0.014252085873484836    -0.014252909734067742    -0.014252049455710115
0.03438120908409445       -2.2686966741958844E-7   -6.778408111098821E-9    0.0036638683464998755    0.01465499931144033      0.014655906790110022     0.014655039981889046     -0.014655947460558708    0.014655947460558708     -0.014655039981889054    -0.014655906790110022    -0.01465499931144033
0.03730099713363685       -2.2476391471147985E-7   -5.388014357703315E-8    0.003974874266979009     0.01589888589965588      0.01589978495531474      0.01589920918051739      -0.01590010823617622     0.01590010823617622      -0.015899209180517397    -0.01589978495531474     -0.01589888589965588
0.03855798953889043       -2.3797019094242723E-7   -6.95235683296539E-8     0.004108782450912266     0.016434445292562185     0.016435397173325973     0.016434862433972217     -0.016435814314735973    0.016435814314735973     -0.016434862433972228    -0.016435397173325973    -0.016434445292562185
0.03926155403560061       -2.5025186247323904E-7   -7.798986847689409E-8    0.0041836914352844385    0.01673403126780737      0.016735032275257283     0.016734499207018284     -0.016735500214468162    0.016735500214468162     -0.016734499207018295    -0.016735032275257283    -0.01673403126780737
0.040632259544469106      -2.0329066085938928E-7   -8.920159079545218E-8    0.0043297124262058045    0.017318175518729106     0.017318988681372566     0.017318710728273932     -0.017319523890917357    0.017319523890917357     -0.017318710728273942    -0.017318988681372566    -0.017318175518729106
0.040753119799110275      -2.0254773081900917E-7   -8.838188464217155E-8    0.004342573538087818     0.017369623911235706     0.017370434102159        0.01737015420254361      -0.017370964393466873    0.017370964393466873     -0.01737015420254362     -0.017370434102159       -0.017369623911235706
0.04158828973732162       -2.1967128393253997E-7   -8.770270399382604E-8    0.004431417022150184     0.017724965637920885     0.01772584432305663      0.017725491854144904     -0.01772637053928062     0.01772637053928062      -0.017725491854144914    -0.01772584432305663     -0.017724965637920885
0.043065851602091934      -2.3822745216375916E-7   -1.1512789768358233E-7   0.004588690594052931     0.018353940537614348     0.018354893447423016     0.018354631305000507     -0.018355584214809144    0.018355584214809144     -0.018354631305000518    -0.018354893447423016    -0.018353940537614348
0.043987975567048025      -2.620870539184344E-7    -1.288505139552811E-7    0.004686872164095721     0.018746577930733185     0.018747626278948874     0.018747351033816976     -0.018748399382032634    0.018748399382032634     -0.018747351033816986    -0.018747626278948874    -0.018746577930733185
0.04906740522385399       -1.8454265838180269E-7   2.057946545955874E-9     0.005227355195343305     0.0209090578698961       0.02090979604052964      0.020909045522216875     -0.020909783692850393    0.020909783692850393     -0.020909045522216882    -0.02090979604052964     -0.0209090578698961
0.04982329349138024       -1.7300299689242729E-7   2.153890722433413E-8     0.00530778642674537      0.021230864317709375     0.021231556329696952     0.021230735084266077     -0.02123142709625364     0.02123142709625364      -0.021230735084266088    -0.021231556329696952    -0.021230864317709375
0.0559623090829007        -2.128737148742306E-7    -1.3824402761687548E-7   0.0059611456495720005    0.0238437421187754       0.023844593613634908     0.023844571582941156     -0.02384542307780065     0.02384542307780065      -0.023844571582941166    -0.023844593613634908    -0.0238437421187754
0.0571942192802323        -2.777334104985862E-7    -1.7026317740113125E-7   0.006092232973434281     0.024367865637383926     0.024368976571025925     0.024368887216448382     -0.024369998150090375    0.024369998150090375     -0.024368887216448393    -0.024368976571025925    -0.024367865637383926
0.06616028148967001       -1.1346851609325535E-7   7.599902456501016E-8     0.007044507464226905     0.028178030916949145     0.02817848479101353      0.028177574922801794     -0.028178028796866164    0.028178028796866164     -0.028177574922801808    -0.02817848479101353     -0.028178030916949145
0.06817382958007377       -7.657882508686068E-8    1.313032121698689E-7     0.007258363941874069     0.029033696519482635     0.029034002834782986     0.029032908700209647     -0.02903321501550999     0.02903321501550999      -0.029032908700209657    -0.029034002834782986    -0.029033696519482635
0.06941493483555142       -9.645439476470833E-8    8.653020836494141E-8     0.007390217802869458     0.02956093789331342      0.029561323710892484     0.02956041871206326      -0.02956080452964232     0.02956080452964232      -0.029560418712063274    -0.029561323710892484    -0.02956093789331342
0.07040046299341657       -1.6098883552959726E-7   6.102148578650064E-8     0.007494887017127198     0.02997940915529512      0.029980053110637242     0.029979043026380433     -0.029979686981722545    0.029979686981722545     -0.029979043026380443    -0.029980053110637242    -0.02997940915529512
0.07139968322599609       -1.852196435074148E-7    2.159929883849416E-8     0.00760083117441925      0.030403019056286524     0.030403759934860556     0.030402889460493528     -0.030403630339067553    0.030403630339067553     -0.030402889460493535    -0.030403759934860556    -0.030403019056286524
0.0761165967918213        -2.9960346314486383E-7   -1.644968612938178E-7    0.008100950583991979     0.03240270963845778      0.03240390805231035      0.03240369661962557      -0.03240489503347815     0.03240489503347815      -0.03240369661962558     -0.03240390805231035     -0.03240270963845778
0.08286756058820212       -3.309689305170192E-7    -1.6005255894793648E-7   0.008816769806502952     0.03526593713047397      0.03526726100619603      0.03526689744582767      -0.03526822132154974     0.03526822132154974      -0.035266897445827686    -0.03526726100619603     -0.03526593713047397
0.08332176492647632       -3.739674246302947E-7    -1.591248409123422E-7    0.008864906468628643     0.03545840056514262      0.03545989643484113      0.03545935531418811      -0.03546085118388663     0.03546085118388663      -0.035459355314188125    -0.03545989643484113     -0.03545840056514262
0.08360670670660084       -4.009422164208073E-7    -1.585428437664756E-7    0.008895104652660664     0.03557914109767856      0.03558074486654424      0.03558009235474118      -0.035581696123606864    0.035581696123606864     -0.03558009235474119     -0.03558074486654424     -0.03557914109767856
0.0864025764096204        -2.7294072394077576E-7   1.1494070416580226E-7    0.009190228410844027     0.03676071258404077      0.036761804346936516     0.03676002293981579      -0.03676111470271155     0.03676111470271155      -0.0367600229398158      -0.036761804346936516    -0.03676071258404077
0.08652436566876731       -2.6736492513942576E-7   1.2685376243728522E-7    0.00920308412576772      0.036812182334507955     0.036813251794208496     0.03681142121193335      -0.036812490671633905    0.036812490671633905     -0.03681142121193336     -0.036813251794208496    -0.036812182334507955
0.09632018634085285       -3.9298186388008274E-7   -4.661175235418446E-8    0.010238188199096606     0.040951826997401644     0.04095339892485714      0.04095210666791579      -0.04095367859537131     0.04095367859537131      -0.040952106667915794    -0.04095339892485714     -0.040951826997401644
0.09681295041978512       -4.564934726629691E-7    -5.8791745417185395E-8   0.010290248781602132     0.04115990576422699      0.041161731738117616     0.04116025851469952      -0.04116208448859016     0.04116208448859016      -0.041160258514699524    -0.041161731738117616    -0.04115990576422699
0.10454451706509417       -2.1265256799138608E-7   3.084309826068627E-7     0.011102248557733887     0.04440949421874741      0.044410344829019344     0.04440764363285179      -0.04440849424312376     0.04440849424312376      -0.044407643632851795    -0.044410344829019344    -0.04440949421874741
0.10487490175746086       -2.02232777802397E-7     3.24123115080673E-7      0.011136946867733177     0.044548355374722376     0.04454916430583355      0.04454641063603191      -0.04454721956714312     0.04454721956714312      -0.044546410636031916    -0.04454916430583355     -0.044548355374722376
0.10977281209350358       -3.3480706305600715E-7   -9.074635192792866E-9    0.011651887896145479     0.04660685474655024      0.04660819397480244      0.046606909194361425     -0.04660824842261366     0.04660824842261366      -0.04660690919436143     -0.04660819397480244     -0.04660685474655024
0.11001919413296939       -3.7007233226465975E-7   -2.75626838395348E-8     0.011677786844540931     0.0467103245454477       0.04671180483477672      0.04671048992155075      -0.04671197021087982     0.04671197021087982      -0.04671048992155076     -0.04671180483477672     -0.0467103245454477
0.12322543784615371       -1.4167879519582095E-7   -6.485565900940822E-8    0.013057718841477068     0.052230397441340864     0.052230964156521585     0.05223078657529493      -0.05223135329047572     0.05223135329047572      -0.052230786575294945    -0.052230964156521585    -0.052230397441340864
0.13640819080951355       -1.39196690002447E-7     2.0238290473215015E-7    0.014426060823240836     0.057704572048297556     0.05770512883505753      0.0577033577508692       -0.0577039145376292      0.0577039145376292       -0.05770335775086921     -0.05770512883505753     -0.057704572048297556
0.13882948481372576       -4.961008053869565E-7    -1.389841206577719E-6    0.01467689573363043      0.05870242120929123      0.05870440561251274      0.058710760256530714     -0.058712744659752264    0.058712744659752264     -0.05871076025653074     -0.05870440561251274     -0.05870242120929123
0.1422160841021205        -6.27462515316288E-7     -9.171530770641384E-7    0.015022901065081144     0.06008759787606277      0.06009010772612401      0.060093100794525185     -0.06009561064458645     0.06009561064458645      -0.0600931007945252      -0.06009010772612401     -0.06008759787606277
0.14508688906894396       -7.388172452980449E-7    -5.164574782030125E-7    0.015316208226480488     0.061261805898996775     0.06126476116797795      0.06126490464386603      -0.061267859912847215    0.061267859912847215     -0.06126490464386604     -0.06126476116797795     -0.061261805898996775
0.1495909437728737        -1.7265060928158926E-7   9.775541815999124E-7     0.015774864615890276     0.06310204582488736      0.06310273642732447      0.0630961804997978       -0.06309687110223491     0.06309687110223491      -0.06309618049979782     -0.06310273642732447     -0.06310204582488736
0.15266155949112561       -2.3986319599434683E-7   -8.537121993048243E-8    0.016086929417016036     0.06434698182801238      0.06434794128079635      0.06434749405533201      -0.06434845350811598     0.06434845350811598      -0.06434749405533201     -0.06434794128079635     -0.06434698182801238
0.1544335317812978        -2.2539023650574658E-8   -4.4932043610507687E-7   0.01626826027225748      0.06507164804967433      0.06507173820576892      0.06507434397229099      -0.0650744341283856      0.0650744341283856       -0.065074343972291       -0.06507173820576892     -0.06507164804967433
0.15643250442176923       4.3974118915787383E-7    7.336238137359355E-7     0.016469969301629576     0.06588295756033784      0.06588119859558121      0.06587855581745547      -0.06587679685269883     0.06587679685269883      -0.06587855581745547     -0.06588119859558121     -0.06588295756033784
0.16277369673623385       -2.2220813100123595E-7   2.022224839926742E-6     0.017110977992245233     0.06844953422723872      0.06845042305976273      0.0684374008781992       -0.0684382897107232      0.0684382897107232       -0.0684374008781992      -0.06845042305976273     -0.06844953422723872
0.16610015060944402       -6.514848732356286E-7    1.6099787478109436E-7    0.01744468141105513      0.0697779056680984       0.06978051160759136      0.06977693968084976      -0.06977954562034269     0.06977954562034269      -0.06977693968084976     -0.06978051160759136     -0.0697779056680984
0.16931970876887265       9.788111463276267E-9     1.864035346321953E-7     0.01776500750303115      0.07106060879895143      0.07106056964650559      0.07105949037774369      -0.07105945122529783     0.07105945122529783      -0.07105949037774369     -0.07106056964650559     -0.07106060879895143
0.17003757874886988       1.5723319578580706E-7    1.9206827483130064E-7    0.017836431118897815     0.07134661514680732      0.0713459862140242       0.07134546273715837      -0.07134483380437523     0.07134483380437523      -0.07134546273715837     -0.0713459862140242      -0.07134661514680732
0.17040826369616516       2.0970189079798948E-7    4.2251699794475764E-7    0.01787317034121956      0.07149436831965368      0.07149352951209051      0.07149183321766606      -0.07149099441010286     0.07149099441010286      -0.07149183321766606     -0.07149352951209051     -0.07149436831965368
0.17183693876556513       -6.747802719958058E-7    7.589288344723914E-8     0.01801472269528698      0.07205776889925426      0.07206046802034227      0.07205731354195363      -0.07206001266304161     0.07206001266304161      -0.07205731354195363     -0.07206046802034227     -0.07205776889925426
0.17324593606999245       -1.5470800761170736E-6   -2.6595702591083077E-7   0.018154325387031368     0.07261340951689552      0.0726195978372          0.07261500525905101      -0.07262119357935548     0.07262119357935548      -0.07261500525905101     -0.0726195978372         -0.07261340951689552
0.17783960223265588       -2.0054950901423772E-7   -6.701895393186693E-7    0.018605369794880658     0.07441906751188666      0.07441986970992273      0.07442308864912262      -0.07442389084715867     0.07442389084715867      -0.07442308864912262     -0.07441986970992273     -0.07441906751188666
0.17939069091196622       -2.110758239440763E-7    3.3520237299021525E-7    0.018756902703445735     0.07502819426925404      0.07502903857254983      0.07502618305501614      -0.0750270273583119      0.0750270273583119       -0.07502618305501615     -0.07502903857254983     -0.07502819426925404
0.17984482886616737       -2.1415778772304752E-7   6.295676354775434E-7     0.01880126950594248      0.07520653841110092      0.07520739504225182      0.0752027610052881       -0.07520361763643899     0.07520361763643899      -0.07520276100528811     -0.07520739504225182     -0.07520653841110092
0.181971702173128         -9.076634093411234E-7    4.812285232435235E-7     0.019007375746853523     0.07602913134616514      0.07603276199980252      0.07602624397502572      -0.07602987462866309     0.07602987462866309      -0.07602624397502573     -0.07603276199980252     -0.07602913134616514
0.18453254602171548       -6.017413673737308E-7    1.7214907649215247E-6    0.01925491136711182      0.0770236064580073       0.07702601342347681      0.07701327751341781      -0.0770156844788873      0.0770156844788873       -0.07701327751341783     -0.07702601342347681     -0.0770236064580073
0.18490419449089834       -5.573437135889439E-7    1.901486731391387E-6     0.019290835554519013     0.07716793199084304      0.07717016136569743      0.07715652307045476      -0.0771587524453091      0.0771587524453091       -0.07715652307045477     -0.07717016136569743     -0.07716793199084304
0.1876789621968938        6.553190708327293E-8     1.2134476447294437E-6    0.01955997217022032      0.07824366008762962      0.07824339796000129      0.07823637940176131      -0.07823611727413296     0.07823611727413296      -0.07823637940176131     -0.07824339796000129     -0.07824366008762962
0.18842837192876769       2.3375826018309293E-7    1.027621931701305E-6     0.019632660632960586     0.07853419291415781      0.07853325788111709      0.07852802718256766      -0.07852709214952691     0.07852709214952691      -0.07852802718256768     -0.07853325788111709     -0.07853419291415781
0.18997594809284402       5.999471551704417E-7     9.292751723364877E-7     0.019782926265694924     0.07913569278260703      0.07913329299398636      0.07913011713157307      -0.07912771734295238     0.07912771734295238      -0.07913011713157309     -0.07913329299398636     -0.07913569278260703
0.19330636059247508       1.283568884087435E-6     2.4320644754756907E-6    0.02009665369976863      0.08039647813026912      0.08039134385473279      0.08038188574341631      -0.08037675146787995     0.08037675146787995      -0.08038188574341634     -0.08039134385473279     -0.08039647813026912
0.19456806759997108       1.5425549183840028E-6    3.0013872830170464E-6    0.020215507476007578     0.08087411917571612      0.0808679489560426       0.08085611085201808      -0.08084994063234452     0.08084994063234452      -0.08085611085201809     -0.0808679489560426      -0.08087411917571612
0.20007255662069873       1.040867035382933E-6     1.649127334047013E-6     0.020738432527428827     0.08296075922578819      0.08295659575764666      0.08295086446178396      -0.08294670099364243     0.08294670099364243      -0.08295086446178396     -0.08295659575764666     -0.08296075922578819
0.20010706731952066       1.0413458873444682E-6    1.6153777514174707E-6    0.020741722511467078     0.08297381887089722      0.08296965348734785      0.08296412660438879      -0.0829599612208394      0.0829599612208394       -0.08296412660438879     -0.08296965348734785     -0.08297381887089722
0.20017647671888553       1.0401326754490762E-6    1.5832297872517078E-6    0.02074813841505386      0.08299938361492808      0.08299522308422629      0.08298988423620464      -0.08298572370550282     0.08298572370550282      -0.08298988423620464     -0.08299522308422629     -0.08299938361492808
0.20395754000520527       6.84222599015862E-7      3.419596602014321E-7     0.021098595632676433     0.08439677685488436      0.08439403996448831      0.0843947250969232       -0.08439198820652714     0.08439198820652714      -0.08439472509692321     -0.08439403996448831     -0.08439677685488436
0.2069641822306072        4.0120848811172867E-7    -6.450788775089331E-7    0.021377273715773665     0.08550796204343837      0.08550635720948592      0.08551183251670345      -0.08551022768275103     0.08551022768275103      -0.08551183251670345     -0.08550635720948592     -0.08550796204343837
0.20816641573783556       9.769620067696537E-8     -1.6966159339225132E-6   0.021488643560055802     0.0859496797848228       0.0859492890000201       0.08595985948042636      -0.08595946869562368     0.08595946869562368      -0.08595985948042636     -0.0859492890000201      -0.0859496797848228
0.21286883602114956       -8.678014760517476E-7    1.1138831026972747E-6    0.021912880404483293     0.08765312766428916      0.08765659887019336      0.08764644436567301      -0.08764991557157722     0.08764991557157722      -0.08764644436567301     -0.08765659887019336     -0.08765312766428916
0.21293610792141734       -8.743438363201728E-7    1.1562556806371778E-6    0.02191895938377866      0.0876775576144839       0.08768105498982919      0.08767062008040011      -0.08767411745574541     0.08767411745574541      -0.08767062008040011     -0.08768105498982919     -0.0876775576144839
0.21295622029426453       -8.654459877898452E-7    1.1628768935789528E-6    0.02192076483808812      0.08768481709105763      0.0876882788750088       0.08767783982969618      -0.08768130161364736     0.08768130161364736      -0.08767783982969618     -0.0876882788750088      -0.08768481709105763
0.21674208608690515       -6.125225535263154E-7    -1.116300566422113E-6    0.022263421790229915     0.08904911321411332      0.08905156330432745      0.08905581101751192      -0.08905826110772601     0.08905826110772601      -0.08905581101751192     -0.08905156330432745     -0.08904911321411332
0.21703107934200402       -5.932156972979025E-7    -1.290281090083039E-6    0.022289578435342426     0.08915325646670486      0.08915562932949407      0.08916099815324541      -0.0891633710160346      0.0891633710160346       -0.08916099815324541     -0.08915562932949407     -0.08915325646670486
0.21716155008860663       -6.409719263928296E-7    -1.3920970947675374E-6   0.02230087158107438      0.08919802808916041      0.089200591976866        0.08920638067172908      -0.08920894455943464     0.08920894455943464      -0.08920638067172908     -0.089200591976866       -0.08919802808916041
0.2191348635423676        -1.363264178317548E-6    -2.932020005333887E-6    0.022471675512134963     0.0898751794601672       0.08988063251688047      0.08989277158019925      -0.08989822463691252     0.08989822463691252      -0.08989277158019926     -0.08988063251688047     -0.0898751794601672
0.22211898239436043       -7.846058768137579E-7    -2.9987266502494644E-6   0.02273591834787212      0.0909331079997841       0.09093624642329134      0.09095110035968565      -0.09095423878319289     0.09095423878319289      -0.09095110035968565     -0.09093624642329134     -0.0909331079997841
0.22536968467350943       -1.3539923477792046E-6   -2.4431810992411006E-6   0.02302356257746907      0.09208421278188297      0.0920896287512741       0.09209887186847848      -0.09210428783786959     0.09210428783786959      -0.09209887186847848     -0.0920896287512741      -0.09208421278188297
0.22799390234257472       -2.949504736174668E-6    -2.4627348143451198E-6   0.023245398664336923     0.09296830744343229      0.09298010546237698      0.0929830838523184       -0.09299488187126309     0.09299488187126309      -0.0929830838523184      -0.09298010546237698     -0.09296830744343229
0.23177855671714948       -2.360251483529135E-6    -2.5234284089654583E-6   0.02356769815720548      0.09425850184062794      0.09426794284656205      0.0942736424110818       -0.09428308341701587     0.09428308341701587      -0.0942736424110818      -0.09426794284656205     -0.09425850184062794
0.23282802434279648       -1.60921238307655E-6     -1.7447406863143443E-6   0.023659161718493915     0.09462819422715055      0.09463463107668285      0.09463866267126848      -0.09464509952080075     0.09464509952080075      -0.0946386626712685      -0.09463463107668285     -0.09462819422715055
0.23370829000501486       -9.792606676015364E-7    -1.09159803847108E-6     0.023735878932421108     0.09493828241423377      0.09494219945690419      0.09494483200246466      -0.09494874904513503     0.09494874904513503      -0.09494483200246467     -0.09494219945690419     -0.09493828241423377
0.23427957989399542       -8.966769354961691E-7    -1.8514575956536443E-7   0.023784739912645687     0.09513661085943304      0.09514019756717501      0.09513772173399049      -0.09514130844173242     0.09514130844173242      -0.09513772173399049     -0.09514019756717501     -0.09513661085943304
0.23465769658861713       -8.420176663308308E-7    4.148031387842018E-7     0.02381707927781713      0.09526787748535218      0.0952712455560175       0.09526538866651954      -0.09526875673718482     0.09526875673718482      -0.09526538866651954     -0.0952712455560175      -0.09526787748535218
0.23618960896410038       6.210356136354737E-7     3.2218961101040894E-7    0.023943978861365        0.09577812408552028      0.09577563994306573      0.09577619094785425      -0.0957737068053997      0.0957737068053997       -0.09577619094785428     -0.09577563994306573     -0.09577812408552028
0.2374460265781973        1.690589311313228E-6     2.2182500553817893E-6    0.024045946278527013     0.09619382104289681      0.09618705868565154      0.09618051154256455      -0.09617374918531926     0.09617374918531926      -0.09618051154256457     -0.09618705868565154     -0.09619382104289681
0.2393417937204472        3.484509673564152E-6     1.7669244821324019E-6    0.024200129858303592     0.09681278922600788      0.09679885118731361      0.09680218767911512      -0.09678824964042085     0.09678824964042085      -0.09680218767911514     -0.09679885118731361     -0.09681278922600788
0.24552121712232675       2.741432376364062E-6     -2.9319449848327278E-6   0.0247080385771561       0.0988288413384226       0.09881787560891714      0.09884643300833165      -0.09883546727882618     0.09883546727882618      -0.09884643300833165     -0.09881787560891714     -0.0988288413384226
0.24861749379442932       5.890374533898351E-6     -4.32396365261325E-6     0.024943792543897694     0.09977397903370072      0.0997504175355651       0.09979992281561645      -0.09977636131748083     0.09977636131748083      -0.09979992281561643     -0.0997504175355651      -0.09977397903370072
0.2499348795141618        6.822227313156955E-6     -4.639937964036501E-6    0.025044497383784583     0.10017771417587253      0.10015042526661988      0.10020555380365678      -0.10017826489440415     0.10017826489440415      -0.10020555380365677     -0.10015042526661988     -0.10017771417587253
0.25049242236294444       6.381012346686138E-6     -5.108464895591823E-6    0.02508772752189454      0.10034834671758473      0.10032282266819796      0.10037899750695835      -0.10035347345757158     0.10035347345757158      -0.10037899750695832     -0.10032282266819796     -0.10034834671758473
0.2541300007458765        2.8947114011385896E-6    -1.5309983356357275E-6   0.025374021380479034     0.1014972819497115       0.10148570310410693      0.10150646793972536      -0.1014948890941208      0.1014948890941208       -0.10150646793972534     -0.10148570310410693     -0.1014972819497115