% Model:              Cylinder_slice_potential.mph
% Version:            COMSOL 6.2.0.339
% Date:               May 8 2024, 04:47
% Dimension:          1
% Nodes:              833
% Expressions:        11
% Description:        Line graph
% Arc length (m)          Magnetic scalar potential Magnetic scalar potential Magnetic scalar potential Magnetic scalar potential Magnetic scalar potential Magnetic scalar potential Magnetic scalar potential Magnetic scalar potential Magnetic scalar potential Magnetic scalar potential Magnetic scalar potential
0                         -0.005222598368961526    -0.004848758346696041    -1.6846776895138995E-7   -0.024992145649086996    -0.004101752173240897    0.0041004044310892765    -0.024990797906935355    0.024990797906935355     -0.0041004044310892765   0.004101752173240897     0.024992145649086996
0.001077003047604587      -0.005253119953538581    -0.004852199657665754    -5.442233962669233E-7    -0.02506501577365951     -0.004052535959505189    0.004048182172335045     -0.025060661986489347    0.025060661986489347     -0.004048182172335045    0.004052535959505189     0.02506501577365951
0.0020205886162236214     -0.005279860571220537    -0.004855214664332053    -8.734309951227714E-7    -0.02512885885941774     -0.0040094165745356      0.0040024291265746085    -0.025121871411456734    0.025121871411456734     -0.0040024291265746085   0.0040094165745356       0.02512885885941774
0.0037107176497388943     -0.005328019392805107    -0.004857792194619308    -9.253464547267844E-7    -0.025233116755287062    -0.00392103918406664     0.003913636412428817     -0.02522571398364922     0.02522571398364922      -0.003913636412428817    0.00392103918406664      0.025233116755287062
0.006539138601098526      -0.005410391154307546    -0.0048646961506026      -4.957842365866757E-7    -0.025416853897369255    -0.0037752892801390723   0.003771323006246369     -0.025412887623476536    0.025412887623476536     -0.003771323006246369    0.0037752892801390723    0.025416853897369255
0.009702280782678414      -0.005499512596378809    -0.004871099248733321    -1.583210482985494E-7    -0.025612956223150792    -0.003614905837635558    0.003613639269249159     -0.02561168965476438     0.02561168965476438      -0.003613639269249159    0.003614905837635558     0.025612956223150792
0.012524133109490066      -0.0055790182063833495   -0.004876811479269209    1.4273126880232724E-7    -0.02578789992549914     -0.003471827099965739    0.003472968950116147     -0.02578904177564953     0.02578904177564953      -0.003472968950116147    0.003471827099965739     0.02578789992549914
0.016632895407843237      -0.005704765064967136    -0.0048855656530469105   -1.9910071974707697E-6   -0.026074191117864902    -0.0032551308579963608   0.003239202800416584     -0.026058263060285115    0.026058263060285115     -0.003239202800416584    0.0032551308579963608    0.026074191117864902
0.017191239140550634      -0.005721179806909185    -0.0048860825744006554   -2.085256488004158E-6    -0.02610894836297237     -0.0032242291353356315   0.0032075470834315874    -0.026092266311068316    0.026092266311068316     -0.0032075470834315874   0.0032242291353356315    0.02610894836297237
0.018417204495179532      -0.005757221950390489    -0.00488721758789438     -2.292201346742012E-6    -0.026185265469851105    -0.00315637766828915     0.003138040057515203     -0.026166927859077146    0.026166927859077146     -0.003138040057515203    0.00315637766828915      0.026185265469851105
0.02327634400836538       -0.005902668513223911    -0.004882751405839228    1.0643663713908553E-7    -0.02645316549741697     -0.0028424914445213303   0.0028433429376184326    -0.02645401699051406     0.02645401699051406      -0.0028433429376184326   0.0028424914445213303    0.02645316549741697
0.024624708906808197      -0.005943028548039039    -0.004881512082889788    7.720358142691922E-7     -0.02652750520149039     -0.002755391009334235    0.0027615672958483783    -0.026533681488004522    0.026533681488004522     -0.0027615672958483783   0.002755391009334235     0.02652750520149039
0.02508262227606453       -0.005957959989953289    -0.004881378207811548    5.34106978030728E-7      -0.02655791817542912     -0.0027260782156159663   0.002730351071440201     -0.026562191031253343    0.026562191031253343     -0.002730351071440201    0.0027260782156159663    0.02655791817542912
0.025811949364247327      -0.005981373512649225    -0.004880161204395754    6.225467126254038E-7     -0.02660074045163523     -0.0026752464010383345   0.0026802267747393273    -0.026605720825336212    0.026605720825336212     -0.0026802267747393273   0.0026752464010383345    0.02660074045163523
0.02948371891309635       -0.006095703333312757    -0.004878311179774141    -1.164951462131048E-6    -0.02683100001179648     -0.0024481866785454566   0.002438867066848398     -0.026821680400099406    0.026821680400099406     -0.002438867066848398    0.0024481866785454566    0.02683100001179648
0.03146816238975702       -0.006157493994133136    -0.00487731131601821     -2.1310221932177077E-6   -0.026955446025093796    -0.0023254700485612527   0.0023084218710155003    -0.026938397847548028    0.026938397847548028     -0.0023084218710155003   0.0023254700485612527    0.026955446025093796
0.032516059753952796      -0.006190646341682394    -0.004875535880823874    -2.3023703796894776E-6   -0.027017109807355187    -0.002254524440625613    0.002236105477588087     -0.02699869084431765     0.02699869084431765      -0.002236105477588087    0.002254524440625613     0.027017109807355187
0.03390269993720006       -0.006233815722546027    -0.004871278076434423    -1.6404722960168772E-6   -0.02708802756357941     -0.0021527646733953015   0.0021396408950271565    -0.027074903785211248    0.027074903785211248     -0.0021396408950271565   0.0021527646733953015    0.02708802756357941
0.03654059306559955       -0.006310209520126426    -0.004866460453156822    -1.104692624970915E-6    -0.027224219170223225    -0.0019833810897175214   0.0019745435487177436    -0.027215381629223434    0.027215381629223434     -0.0019745435487177436   0.0019833810897175214    0.027224219170223225
0.038663261462170126      -0.006378205294608785    -0.004852082526490085    -6.709369975310702E-8    -0.027312926543486857    -0.0018001053650517197   0.0017995686154536848    -0.02731238979388881     0.02731238979388881      -0.0017995686154536848   0.0018001053650517197    0.027312926543486857
0.04061766639817487       -0.006443671483598577    -0.00484948485510505     -5.22668929092249E-7     -0.027437888208228695    -0.0016632022738343893   0.0016590209224016418    -0.027433706856795935    0.027433706856795935     -0.0016590209224016418   0.0016632022738343893    0.027437888208228695
0.042892583912920265      -0.0065198737982841695   -0.0048464611786793      -1.0529562044746017E-6   -0.027583342957424158    -0.0015038477642874823   0.001495424114651676     -0.02757491930778834     0.02757491930778834      -0.001495424114651676    0.0015038477642874823    0.027583342957424158
0.044310100937040936      -0.006567858514448603    -0.004840631900547896    -1.8980235118524867E-7   -0.027658371939945657    -0.0013869378821512494   0.001385419463341758     -0.027656853521136157    0.027656853521136157     -0.001385419463341758    0.0013869378821512494    0.027658371939945657
0.04784938567280361       -0.006687667709386514    -0.004826077242818979    1.9653373794692887E-6    -0.027845705797712107    -0.0010950349601660551   0.0011107576592017997    -0.027861428496747838    0.027861428496747838     -0.0011107576592017997   0.0010950349601660551    0.027845705797712107
0.04788758711623807       -0.0066889762903913665   -0.004825814907658655    1.96148199818537E-6      -0.027847551375765976    -0.0010916462142005134   0.0011073380701859866    -0.027863243231751433    0.027863243231751433     -0.0011073380701859866   0.0010916462142005134    0.027847551375765976
0.04794435195976422       -0.006690840219857306    -0.004825497961710151    1.927302967840205E-6     -0.027850465112973725    -0.0010871042335445027   0.0011025226572872146    -0.027865883536716422    0.027865883536716422     -0.0011025226572872146   0.0010871042335445027    0.027850465112973725
0.053944011174457615      -0.006887844930893205    -0.004791998923178971    -1.6851888778416354E-6   -0.028158427386834703    -6.070476632618943E-4    5.935661522391513E-4     -0.028144945875811955    0.028144945875811955     -5.935661522391513E-4    6.070476632618943E-4     0.028158427386834703
0.05601187075671754       -0.006955875786193324    -0.004774425072609583    -1.2025329382112176E-6   -0.028239836921968256    -4.1633377719497283E-4   4.067135136892733E-4     -0.02823021665846255     0.02823021665846255      -4.067135136892733E-4    4.1633377719497283E-4    0.028239836921968256
0.059072049976049854      -0.007056553129785147    -0.0047484179235858      -4.882611911276578E-7    -0.028360313075092222    -1.3410055595164343E-4   1.3019446642261235E-4    -0.028356406985563184    0.028356406985563184     -1.3019446642261235E-4   1.3410055595164343E-4    0.028360313075092222
0.059158178280007676      -0.007059657053380859    -0.0047480242956563275   -4.793538954303014E-7    -0.02836530440931244     -1.2667619578901122E-4   1.2284136462555897E-4    -0.02836146957814898     0.02836146957814898      -1.2284136462555897E-4   1.2667619578901122E-4    0.02836530440931244
0.06499543843599495       -0.007252842425020748    -0.004718031820072864    1.4658924544902971E-6    -0.02865391674044214     3.574529596408382E-4     -3.4572582000492563E-4   -0.02866564388007805     0.02866564388007805      3.4572582000492563E-4    -3.574529596408382E-4    0.02865391674044214
0.06635360290984135       -0.007302529886175361    -0.004702938859963656    1.6962608518539606E-6    -0.02870709130883428     5.030282358671414E-4     -4.894581490523195E-4    -0.0287206613956491      0.0287206613956491       4.894581490523195E-4     -5.030282358671414E-4    0.02870709130883428
0.06911976780748863       -0.00740372802052933     -0.004672199124637308    2.1654506934273828E-6    -0.028815391612196893    7.995204699204163E-4     -7.82196864373007E-4     -0.028832715217744297    0.028832715217744297     7.82196864373007E-4      -7.995204699204163E-4    0.028815391612196893
0.07046697088721174       -0.007455568801948082    -0.004654983621430452    1.6818928359226902E-6    -0.028869360896843846    9.52914310948468E-4      -9.394591682610963E-4    -0.02888281603953121     0.02888281603953121      9.394591682610963E-4     -9.52914310948468E-4     0.028869360896843846
0.07199120304757563       -0.007508615581205702    -0.004635240698275372    1.5748775710157531E-6    -0.028916653746953472    0.0011178085778693206    -0.0011052095573012043   -0.028929252767521584    0.028929252767521584     0.0011052095573012043    -0.0011178085778693206   0.028916653746953472
0.07365702569405634       -0.007563884135944302    -0.004614023699485445    1.1968279156735096E-6    -0.028965052058682265    0.0012904844850949314    -0.001280909861769553    -0.028974626682007634    0.028974626682007634     0.001280909861769553     -0.0012904844850949314   0.028965052058682265
0.07948083848992954       -0.007757106215723372    -0.00453984783850538     -1.2485565304794823E-7   -0.029134255369575097    0.0018941694933183868    -0.0018951683385427798   -0.02913325652435069     0.02913325652435069      0.0018951683385427798    -0.0018941694933183868   0.029134255369575097
0.08171965422587277       -0.007839496473647192    -0.004513095045234087    -1.5326508215847398E-7   -0.0292188911433253      0.0021390947512634623    -0.0021403208719207394   -0.02921766502266801     0.02921766502266801      0.0021403208719207394    -0.0021390947512634623   0.0292188911433253
0.08520539848795718       -0.00795511354561388     -0.004471782980448986    7.144363984302254E-7     -0.02932271828698102     0.0024977358954744945    -0.0024920204042870628   -0.029328433778168433    0.029328433778168433     0.0024920204042870628    -0.0024977358954744945   0.02932271828698102
0.08745298866757398       -0.008031788600074892    -0.004434291185009955    7.742393409959559E-7     -0.029363353797815683    0.002763800602483877     -0.002757606687755919    -0.029369547712543628    0.029369547712543628     0.002757606687755919     -0.002763800602483877    0.029363353797815683
0.09009709568772303       -0.008126021464255567    -0.004385547587166406    -1.8411476862431904E-7   -0.029409422149084864    0.0030946637079373998    -0.003096136626086404    -0.029407949230935843    0.029407949230935843     0.003096136626086404     -0.0030946637079373998   0.029409422149084864
0.09275195497384196       -0.008226643443072675    -0.004345956200384902    -5.143891776328426E-7    -0.0294932130440106      0.003413360728280086     -0.003417475841701159    -0.029489097930589514    0.029489097930589514     0.003417475841701159     -0.003413360728280086    0.0294932130440106
0.09351060840799107       -0.008252204623389077    -0.004335101042869207    -3.711672960034075E-7    -0.02951119704456981     0.003497621448986498     -0.0035005907873545345   -0.029508227706201755    0.029508227706201755     0.0035005907873545345    -0.003497621448986498    0.02951119704456981
0.0958210470492787        -0.00832259566526123     -0.004306945510037926    -1.0772013344981638E-6   -0.02957033666597425     0.0037200459950706708    -0.003728663605746666    -0.029561719055298235    0.029561719055298235     0.003728663605746666     -0.0037200459950706708   0.02957033666597425
0.0967773505524526        -0.008352402171820044    -0.004294222125078491    -1.141806946053299E-6    -0.029592037946659794    0.0038175707406203855    -0.0038267051961888214   -0.02958290349109134     0.02958290349109134      0.0038267051961888214    -0.0038175707406203855   0.029592037946659794
0.09680915528971976       -0.008353393476470513    -0.004293798970803263    -1.143955599168839E-6    -0.029592759687747508    0.003820814218134545     -0.003829965862927905    -0.029583608042954127    0.029583608042954127     0.003829965862927905     -0.003820814218134545    0.029592759687747508
0.09688691497714329       -0.008356239123299093    -0.004291883816112331    -1.1197620780200376E-6   -0.029592608743247276    0.003832347749949096     -0.003841305846573266    -0.029583650646623084    0.029583650646623084     0.003841305846573266     -0.003832347749949096    0.029592608743247276
0.1007133528855165        -0.00849626914733216     -0.004197641918381094    7.076491003977519E-8     -0.029585180990167458    0.004399895599161175     -0.0043993294798808655   -0.02958574710944775     0.02958574710944775      0.0043993294798808655    -0.004399895599161175    0.029585180990167458
0.10181581832802494       -0.008536059348782973    -0.004180734365183169    4.6345607372205926E-7    -0.029612467968820586    0.004531769426311309     -0.004528061777721541    -0.029616175617410326    0.029616175617410326     0.004528061777721541     -0.004531769426311309    0.029612467968820586
0.10297329176151646       -0.008580659562825233    -0.0041568004033155515   1.0615911045707334E-6    -0.029627473971178854    0.0046951642801220765    -0.004686671551285519    -0.029635966700015386    0.029635966700015386     0.004686671551285519     -0.0046951642801220765   0.029627473971178854
0.1036454275320459        -0.008607964903466407    -0.004141017591227175    1.1086511831924939E-6    -0.029634547975881588    0.004797311637984037     -0.004788442428518506    -0.029643417185347094    0.029643417185347094     0.004788442428518506     -0.004797311637984037    0.029634547975881588
0.10564947553065414       -0.008679120182580234    -0.004093402158348697    6.862544831072063E-7     -0.029635701822274152    0.005080778908046783     -0.0050752888721819316   -0.029641191858138977    0.029641191858138977     0.0050752888721819316    -0.005080778908046783    0.029635701822274152
0.10715102906296564       -0.008732690447181706    -0.004061835267461164    1.1978571089347422E-6    -0.02964609526831119     0.00528466652041564      -0.005275083663544169    -0.029655678125182633    0.029655678125182633     0.005275083663544169     -0.00528466652041564     0.02964609526831119
0.11253380722745633       -0.008924729455021072    -0.003948674086501668    3.031853289517947E-6     -0.029683353756389093    0.006015564063695191     -0.005991309237379057    -0.029707608582705203    0.029707608582705203     0.005991309237379057     -0.006015564063695191    0.029683353756389093
0.11278911865397229       -0.00893423454801331     -0.0039423538322147      3.006586593430021E-6     -0.029683504246297017    0.006053433945756218     -0.006029381253008787    -0.02970755693904442     0.02970755693904442      0.006029381253008787     -0.006053433945756218    0.029683504246297017
0.11374174573676721       -0.008964823825886233    -0.003918506602514964    2.6448248385477273E-6    -0.029674588159963187    0.006184707143581744     -0.006163548544873372    -0.029695746758671537    0.029695746758671537     0.006163548544873372     -0.006184707143581744    0.029674588159963187
0.11838977240054141       -0.00911407402226088     -0.003802151985368958    8.797288077973498E-7     -0.02963108508539746     0.006825211003646055     -0.006818173173183685    -0.029638122915859814    0.029638122915859814     0.006818173173183685     -0.006825211003646055    0.02963108508539746
0.11962799325450181       -0.009153502764254551    -0.00377134706440654     3.807182831468763E-7     -0.029619523848596147    0.006994487208422047     -0.006991441462156879    -0.0296225695948613      0.0296225695948613       0.006991441462156879     -0.006994487208422047    0.029619523848596147
0.11974355244545          -0.009157400849062353    -0.003767946050723692    3.848020513739369E-7     -0.02961710064209031     0.007012502754159106     -0.007009424337748124    -0.02962017905850127     0.02962017905850127      0.007009424337748124     -0.007012502754159106    0.02961710064209031
0.11978882634436079       -0.00915897152109222     -0.0037667590395407233   3.8317450439793E-7       -0.02961668746278904     0.0070191986215798405    -0.007016133225544665    -0.02961975285882419     0.02961975285882419      0.007016133225544665     -0.0070191986215798405   0.02961668746278904
0.12193280977589871       -0.009233352011605047    -0.0037105471300175547   3.0610065313800544E-7    -0.02959712101065022     0.007336287035769964     -0.007333838230544867    -0.0295995698158753      0.0295995698158753       0.007333838230544867     -0.007336287035769964    0.02959712101065022
0.1290333586316826        -0.009460474164445279    -0.003511923999736695    1.1342711193595132E-8    -0.029456674957255877    0.008385221700525223     -0.008385130958835682    -0.029456765698945404    0.029456765698945404     0.008385130958835682     -0.008385221700525223    0.029456674957255877
0.1293522249335722        -0.009472377165438445    -0.0035027651645657782   -2.1949592835735285E-8   -0.029453137622945578    0.008436371038808189     -0.008436546635550882    -0.029452962026202865    0.029452962026202865     0.008436546635550882     -0.008436371038808189    0.029453137622945578
0.1298145037035693        -0.009489633628808163    -0.0034894870758109377   -7.021535583999716E-8    -0.029448009346472508    0.008510525168760129     -0.008511086891606855    -0.029447447623625764    0.029447447623625764     0.008511086891606855     -0.008510525168760129    0.029448009346472508
0.13107650089782508       -0.009529661047635609    -0.003450067576886067    2.8709410184715986E-7    -0.029408376449522038    0.008710267741020385     -0.008707970988205613    -0.029410673202336795    0.029410673202336795     0.008707970988205613     -0.008710267741020385    0.029408376449522038
0.13838352040142593       -0.009754067657634178    -0.003222927623718225    1.5881846375979684E-7    -0.02917628291256801     0.009839987717968705     -0.009838717170258634    -0.02917755346027806     0.02917755346027806      0.009838717170258634     -0.009839987717968705    0.02917628291256801
0.13884949973693253       -0.009770000842357468    -0.0032070213217596883   2.8206698326456185E-7    -0.02915993738206096     0.009920065987368911     -0.009917809451502802    -0.029162193917927046    0.029162193917927046     0.009917809451502802     -0.009920065987368911    0.02915993738206096
0.13930818035024425       -0.00978568446260415     -0.0031913641632079458   4.0338503796916923E-7    -0.02914384787468028     0.009998889975736324     -0.009995662895432578    -0.029147074954984004    0.029147074954984004     0.009995662895432578     -0.009998889975736324    0.02914384787468028
0.14064272413213277       -0.009826706965146488    -0.0031488965780591127   4.524197986017662E-7     -0.029098293985275917    0.010208533875310025     -0.010204914516921218    -0.029101913343664704    0.029101913343664704     0.010204914516921218     -0.010208533875310025    0.029098293985275917
0.14375753184461623       -0.00991929953855938     -0.003047962695283411    -5.188431379310045E-7    -0.028984562535520727    0.010692635618716785     -0.010696786363820243    -0.028980411790417257    0.028980411790417257     0.010696786363820243     -0.010692635618716785    0.028984562535520727
0.1455792919938358        -0.009971419224618815    -0.002981147567256665    -4.246231537575801E-8    -0.028886451000269132    0.010999225898206112     -0.010999565596729127    -0.0288861113017461      0.0288861113017461       0.010999565596729127     -0.010999225898206112    0.028886451000269132
0.14769986992252815       -0.010031860361240229    -0.0029016652915462167   1.0053012359276492E-7    -0.028768314476624743    0.01135912696833616      -0.01135832272734743     -0.02876911871761346     0.02876911871761346      0.01135832272734743      -0.01135912696833616     0.028768314476624743
0.14869517913578487       -0.010058849452294686    -0.002868413354911229    -1.3502859389446874E-7   -0.028723479083698645    0.011511918725480085     -0.01151299895423125     -0.02872239885494746     0.02872239885494746      0.01151299895423125      -0.011511918725480085    0.028723479083698645
0.15011800069983516       -0.010095841719589264    -0.002814801072220651    3.439601349733781E-7     -0.028634710815300595    0.011748656063056449     -0.011745904381976672    -0.02863746249638036     0.02863746249638036      0.011745904381976672     -0.011748656063056449    0.028634710815300595
0.1533941801760121        -0.010192341619363374    -0.0026977375241959054   2.9731058604699483E-7    -0.028476706568970295    0.012292659908483201     -0.012290281423794834    -0.028479085053658648    0.028479085053658648     0.012290281423794834     -0.012292659908483201    0.028476706568970295
0.15340482511818196       -0.010192655166243203    -0.0026973571620368783   2.9715901262004957E-7    -0.028476193182546572    0.012294427482426228     -0.012292050210325279    -0.02847857045464751     0.02847857045464751      0.012292050210325279     -0.012294427482426228    0.028476193182546572
0.15341402565092516       -0.010192919974760744    -0.0026969990897903195   2.984531254611043E-7     -0.02847564340639061     0.012296036492652351     -0.012293648867648674    -0.028478031031394277    0.028478031031394277     0.012293648867648674     -0.012296036492652351    0.02847564340639061
0.15402265833502457       -0.010210437560242256    -0.0026733119318171905   3.840611433839749E-7     -0.028439274671362556    0.012402475569606452     -0.01239940308045939     -0.02844234716050961     0.02844234716050961      0.01239940308045939      -0.012402475569606452    0.028439274671362556
0.1576625029688935        -0.010310163133222763    -0.0025200830444333886   4.685886298546522E-7     -0.028178701045226285    0.013061951487664756     -0.013058202778625929    -0.0281824497542651      0.0281824497542651       0.013058202778625929     -0.013061951487664756    0.028178701045226285
0.15894560204229366       -0.01034587016474189     -0.002466559264057147    4.379637427619119E-7     -0.028089666266684188    0.01329381439228336      -0.013290310682341279    -0.02809316997662626     0.02809316997662626      0.013290310682341279     -0.01329381439228336     0.028089666266684188
0.159197368968115         -0.010352880371049644    -0.0024549525322554236   4.3362266899237155E-7    -0.0280688838481896      0.013342637636008962     -0.013339168654657035    -0.028072352829541524    0.028072352829541524     0.013339168654657035     -0.013342637636008962    0.0280688838481896
0.16032649782763267       -0.010379843073025183    -0.0024114974234175626   3.561040639369352E-7     -0.027992754000047318    0.013526618292053403     -0.01352376945954192     -0.027995602832558794    0.027995602832558794     0.01352376945954192      -0.013526618292053403    0.027992754000047318
0.16905589136687435       -0.010588294069952422    -0.0020755421928530795   -2.4319902218827055E-7   -0.027404187514552845    0.014948988765256823     -0.014950934357434349    -0.02740224192237532     0.02740224192237532      0.014950934357434349     -0.014948988765256823    0.027404187514552845
0.17407019633027976       -0.010688006041590759    -0.0018439755174200702   -4.0557913231696575E-7   -0.026909560951971       0.015842463214392005     -0.015845707847450555    -0.026906316318912445    0.026906316318912445     0.015845707847450555     -0.015842463214392005    0.026909560951971
0.17763605836585508       -0.01074866356039748     -0.001678275675728788    4.650854554330501E-7     -0.026530293806159594    0.016464360435430297     -0.016460639751786854    -0.026534014489803043    0.026534014489803043     0.016460639751786854     -0.016464360435430297    0.026530293806159594
0.17816494681258402       -0.010758477836575499    -0.0016557950045784824   5.252516910158709E-7     -0.026482239680122383    0.01655167166617958      -0.016547469652651473    -0.026486441693650494    0.026486441693650494     0.016547469652651473     -0.01655167166617958     0.026482239680122383
0.18001632695555342       -0.010792832824183902    -0.0015771011544372785   7.358642966120178E-7     -0.02631402565449319     0.01685730564224238      -0.016851418727869504    -0.026319912568866073    0.026319912568866073     0.016851418727869504     -0.01685730564224238     0.02631402565449319
0.18703931654599157       -0.010906790153479446    -0.0012421941773877645   3.900119792654329E-7     -0.025538602791205133    0.018088557822712625     -0.018085437726878525    -0.025541722887039237    0.025541722887039237     0.018085437726878525     -0.018088557822712625    0.025538602791205133
0.18716216989424542       -0.010908812226351714    -0.001236386479376056    3.7356224696623104E-7    -0.025525289641843737    0.01810995926356309      -0.018106970765587378    -0.025528278139819446    0.025528278139819446     0.018106970765587378     -0.01810995926356309     0.025525289641843737
0.1872122107646582        -0.010909586282916623    -0.0012342476898246876   3.766458884094764E-7     -0.02552040905175368     0.018117936079912786     -0.018114922912805528    -0.025523422218860937    0.025523422218860937     0.018114922912805528     -0.018117936079912786    0.02552040905175368
0.18942073814867783       -0.010945374230244501    -0.001137939026010447    4.0055075169069247E-7    -0.02530296333551359     0.01847853358546439      -0.018475329179450883    -0.025306167741527094    0.025306167741527094     0.018475329179450883     -0.01847853358546439     0.02530296333551359
0.19148700495169613       -0.01096595339087044     -0.0010429231674979648   1.9947094776141392E-7    -0.025059878400443734    0.018803935163038        -0.01880233939545593     -0.025061474168025805    0.025061474168025805     0.01880233939545593      -0.018803935163038       0.025059878400443734
0.19204124164147462       -0.010971976439599405    -0.0010156096758047444   2.597310279037666E-7     -0.024989742982501437    0.018898162775896163     -0.018896084927672946    -0.024991820830724643    0.024991820830724643     0.018896084927672946     -0.018898162775896163    0.024989742982501437
0.19265074963751286       -0.010978600137432003    -9.85572343571479E-4     3.2600055023245275E-7    -0.024912613303377525    0.019001787246350467     -0.018999179241948622    -0.024915221307779355    0.024915221307779355     0.018999179241948622     -0.019001787246350467    0.024912613303377525
0.19686400259512707       -0.01103018592494597     -7.718418836915974E-4    1.2483112591713038E-6    -0.02437090425593006     0.019749839443853806     -0.019739852953780453    -0.02438089074600341     0.02438089074600341      0.019739852953780453     -0.019749839443853806    0.02437090425593006
0.19833947189255519       -0.0110422226071396      -7.034090411787116E-4    9.004781875775052E-7     -0.02419107042506504     0.019977820003493352     -0.01997061617799275     -0.024198274250565643    0.024198274250565643     0.01997061617799275      -0.019977820003493352    0.02419107042506504
0.2022301955758442        -0.011070676821283983    -5.166782009578281E-4    6.074336014111131E-7     -0.02368895851103582     0.020593748774100105     -0.020588889305288828    -0.023693817979847084    0.023693817979847084     0.020588889305288828     -0.020593748774100105    0.02368895851103582
0.20374853548477886       -0.011079081838825635    -4.412298863469106E-4    -1.877860208082573E-7    -0.023482604480775243    0.020833722874527283     -0.02083522516269376     -0.02348110219260876     0.02348110219260876      0.02083522516269376      -0.020833722874527283    0.023482604480775243
0.20435064252760757       -0.01108428569227529     -4.0972908945187007E-4   -2.6236836396501863E-7   -0.02339880812636206     0.020938334642739087     -0.020940433589650823    -0.02339670917945032     0.02339670917945032      0.020940433589650823     -0.020938334642739087    0.02339880812636206