% Model:              Cylinder_slice_potential_1.mph
% Version:            COMSOL 6.2.0.415
% Date:               May 17 2024, 18:28
% Dimension:          1
% Nodes:              906
% Expressions:        11
% Description:        Line graph
% Arc length (m)          Magnetic scalar potential Magnetic scalar potential Magnetic scalar potential Magnetic scalar potential Magnetic scalar potential Magnetic scalar potential Magnetic scalar potential Magnetic scalar potential Magnetic scalar potential Magnetic scalar potential Magnetic scalar potential
0                         -0.0023695396642012365   1.3551280152096382E-6    2.706731794163087E-7     -0.004733931251639175    0.004744227405165762     -0.004742062019730442    -0.004736096637074501    0.004736096637074501     0.004742062019730442     -0.004744227405165762    0.004733931251639175
0.0016158426821462736     -0.002388103533835353    7.993391177871012E-7     1.2733550464835136E-7    -0.0047732997082987495   0.004779114427042657     -0.00477809574300548     -0.0047743183923359325   0.0047743183923359325    0.00477809574300548      -0.004779114427042657    0.0047732997082987495
0.00317282016253514       -0.0024057451566814204   -1.786864136621674E-8    -5.390157705816603E-8    -0.00481175952559517     0.004811221101130507     -0.00481165231374698     -0.004811328312978701    0.004811328312978701     0.00481165231374698      -0.004811221101130507    0.00481175952559517
0.007141531817736576      -0.002451056431440443    3.3190854643967933E-6    1.6384019705472663E-7    -0.004891500245699474    0.004912725480062292     -0.004911414758485862    -0.00489281096727591     0.00489281096727591      0.004911414758485862     -0.004912725480062292    0.004891500245699474
0.010041682163634377      -0.0024863158919172876   5.395425051382985E-7     2.2586649685859552E-7    -0.004970109690331725    0.004975153877337423     -0.004973346945362562    -0.0049719166223065915   0.0049719166223065915    0.004973346945362562     -0.004975153877337423    0.004970109690331725
0.011149937572530763      -0.0024999364617413096   5.244738796065015E-7     9.160234845851748E-8     -0.004997933092449964    0.005001812754515271     -0.00500107993572761     -0.00499866591123763     0.00499866591123763      0.00500107993572761      -0.005001812754515271    0.004997933092449964
0.01245226423224484       -0.002515942186649059    5.067665238852805E-7     -6.617335784672098E-8    -0.005030628767157848    0.005033139979438384     -0.005033669366301166    -0.005030099380295071    0.005030099380295071     0.005033669366301166     -0.005033139979438384    0.005030628767157848
0.01396586229829055       -0.002534675291389921    2.5532825125763897E-6    9.686126979608743E-9     -0.005061651990734195    0.0050770491748254876    -0.0050769716858096595   -0.005061729479750028    0.005061729479750028     0.0050769716858096595    -0.0050770491748254876   0.005061651990734195
0.018173119128706824      -0.0025898627982084204   6.720410931494704E-7     7.970042055060836E-8     -0.005177390671455191    0.005182060521378491     -0.005181422918014095    -0.005178028274819592    0.005178028274819592     0.005181422918014095     -0.005182060521378491    0.005177390671455191
0.020821121018830584      -0.0026231607362144993   -1.005173793191987E-6    2.445398783535518E-7     -0.0052483588342951614   0.005244284110562837     -0.005242327791536017    -0.005250315153321987    0.005250315153321987     0.005242327791536017     -0.005244284110562837    0.0052483588342951614
0.023317840448628037      -0.0026578981662664196   -1.2185586755067618E-6   5.137818477310076E-8     -0.00531924649582027     0.005312346169245412     -0.005311935143767236    -0.00531965752129845     0.00531965752129845      0.005311935143767236     -0.005312346169245412    0.00531924649582027
0.025081952094014325      -0.002681330504297855    -1.1299154439499087E-6   -6.950697801086896E-8    -0.005366328782839606    0.005358993234351817     -0.0053595492901759145   -0.005365772727015514    0.005365772727015514     0.0053595492901759145    -0.005358993234351817    0.005366328782839606
0.0285795904787745        -0.0027290801630160447   -8.437960348769977E-7    -4.5848723285678885E-8   -0.005460875109029866    0.005455445543034314     -0.005455812332820611    -0.005460508319243575    0.005460508319243575     0.005455812332820611     -0.005455445543034314    0.005460875109029866
0.030838810275181552      -0.0027599229667540906   -6.589837238244039E-7    -3.056721286525503E-8    -0.005521945153531119    0.005517746713485245     -0.0055179912511881795   -0.005521700615828193    0.005521700615828193     0.0055179912511881795    -0.005517746713485245    0.005521945153531119
0.03264967201019173       -0.00278429496363203     -4.3553898733002815E-7   -1.3412133770683163E-8   -0.005569950192761137    0.005567229661766986     -0.005567336958837163    -0.005569842895690968    0.005569842895690968     0.005567336958837163     -0.005567229661766986    0.005569950192761137
0.03293528783339613       -0.0027885250029918993   -7.165830612614946E-7    2.1173657413379248E-8    -0.005579115060537931    0.005574984951429665     -0.00557481556217037     -0.005579284449797235    0.005579284449797235     0.00557481556217037      -0.005574984951429665    0.005579115060537931
0.036268038774894894      -0.002836570597913675    -6.589870980218504E-7    1.2958035768452025E-7    -0.005674599835690679    0.00567168255596402      -0.005670645913102555    -0.005675636478552152    0.005675636478552152     0.005670645913102555     -0.00567168255596402     0.005674599835690679
0.037021193566995056      -0.002847455915043985    -1.2311950394314486E-6   1.3356772717216803E-7    -0.005698071144297577    0.005691752515878362     -0.005690683974060996    -0.005699139686114953    0.005699139686114953     0.005690683974060996     -0.005691752515878362    0.005698071144297577
0.03899237124067891       -0.002877210196260054    -1.5111912234391418E-6   1.631038328876319E-7     -0.005758301550858876    0.005750539234181338     -0.005749234403518248    -0.005759606381521974    0.005759606381521974     0.005749234403518248     -0.005750539234181338    0.005758301550858876
0.042264167874444314      -0.0029280951252421503   -2.863189973552239E-7    9.607865237702633E-10    -0.0058570453643302725   0.005855335136638328     -0.005855327450346148    -0.00585705305062246     0.00585705305062246      0.005855327450346148     -0.005855335136638328    0.0058570453643302725
0.04311345257873216       -0.002941303706551048    3.163024056024564E-8     -4.112789581128682E-8    -0.005882677033963661    0.00588253779224053      -0.005882866815407031    -0.0058823480107971695   0.0058823480107971695    0.005882866815407031     -0.00588253779224053     0.005882677033963661
0.044264661419436885      -0.002959131348960527    -4.607982728770736E-7    5.3211452523062695E-8    -0.005919432246929593    0.005917093148912513     -0.005916667457292339    -0.0059198579385497775   0.0059198579385497775    0.005916667457292339     -0.005917093148912513    0.005919432246929593
0.044424093938480624      -0.0029617026336412294   -4.3051343999618115E-7   6.782150441990695E-8     -0.005924425521584768    0.005922385012980149     -0.0059218424409448      -0.005924968093620127    0.005924968093620127     0.0059218424409448       -0.005922385012980149    0.005924425521584768
0.04504945464796169       -0.002971811273407972    -7.976477089081579E-7    1.0809746772646079E-7    -0.0059455831000717625   0.005941661993560124     -0.005940797213818322    -0.005946447879813573    0.005946447879813573     0.005940797213818322     -0.005941661993560124    0.0059455831000717625
0.04685408206402376       -0.003001808543648503    -9.251589097313629E-7    1.0784947713459224E-7    -0.00600596116611766     0.006001273008476349     -0.006000410212659282    -0.006006823961934736    0.006006823961934736     0.006000410212659282     -0.006001273008476349    0.00600596116611766
0.049056214903494384      -0.0030373549398400356   -5.180948354957432E-7    8.240418911444715E-8     -0.0060759345474300985   0.0060734852119300395    -0.006072825978417135    -0.006076593780943015    0.006076593780943015     0.006072825978417135     -0.0060734852119300395   0.0060759345474300985
0.0535772331472726        -0.0031104142410867423   1.48624144500893E-7      -4.631000314856944E-8    -0.006220567849752576    0.006221089114594391     -0.006221459594619593    -0.006220197369727387    0.006220197369727387     0.006221459594619593     -0.006221089114594391    0.006220567849752576
0.055243438387340874      -0.0031398395538001023   2.020707676462587E-7     -6.71090384205269E-8     -0.0062793413314509465   0.006280016883749459     -0.006280553756056835    -0.006278804459143583    0.006278804459143583     0.006280553756056835     -0.006280016883749459    0.0062793413314509465
0.05593073409117868       -0.0031517289410199468   1.246675890512759E-7     -6.336233743085638E-8    -0.006303337328622462    0.006303578435457322     -0.006304085334156781    -0.006302830429923015    0.006302830429923015     0.006304085334156781     -0.006303578435457322    0.006303337328622462
0.05834966716321462       -0.003193573567418354    -1.4775242978285983E-7   -5.0175845962429294E-8   -0.006387791095509905    0.006386503174163507     -0.00638690458093122     -0.006387389688742206    0.006387389688742206     0.00638690458093122      -0.006386503174163507    0.006387791095509905
0.05847410939398383       -0.0031958212962210917   -1.6784695891967596E-7   -3.517978960653243E-8    -0.006392286852477366    0.006390998332406995     -0.006391279770723861    -0.006392005414160514    0.006392005414160514     0.006391279770723861     -0.006390998332406995    0.006392286852477366
0.05935813002599685       -0.003211788855019319    -3.1059575277953955E-7   7.135014910880857E-8     -0.006424224096700541    0.006422931323376733     -0.0064223605221838745   -0.006424794897893412    0.006424794897893412     0.0064223605221838745    -0.006422931323376733    0.006424224096700541
0.05976220271526373       -0.003218748499828393    4.3754725234605566E-8    6.470627318091489E-8     -0.006437106910388358    0.006437887088925212     -0.006437369438739776    -0.006437624560573805    0.006437624560573805     0.006437369438739776     -0.006437887088925212    0.006437106910388358
0.061341029019483115      -0.003247719975937511    3.6201424214019145E-7    -5.344448487175865E-9    -0.00649437528694255     0.006496504616807492     -0.006496547372395402    -0.006494332531354653    0.006494332531354653     0.006496547372395402     -0.006496504616807492    0.00649437528694255
0.06400218045735122       -0.0032955170791058447   1.326651755956356E-6     -1.3972131449869974E-7   -0.006587613088201814    0.0065944552282215605    -0.006595572998737562    -0.006586495317685824    0.006586495317685824     0.006595572998737562     -0.0065944552282215605   0.006587613088201814
0.06588303536597492       -0.00333129050980204     1.8810393915829803E-6    6.532509748585931E-8     -0.006656676601039388    0.006668485438168772     -0.006667962837388896    -0.006657199201819273    0.006657199201819273     0.006667962837388896     -0.006668485438168772    0.006656676601039388
0.06680859976694695       -0.003348116796482023    7.32875089513357E-7      1.2377427219328737E-7    -0.006693539870606733    0.006698927315321358     -0.006697937121143824    -0.0066945300647842775   0.0066945300647842775    0.006697937121143824     -0.006698927315321358    0.006693539870606733
0.06882095931831703       -0.0033862519372438032   2.0684459673703575E-6    -7.478832676483171E-8    -0.006766597689892554    0.006778410059082656     -0.006779008365696787    -0.006765999383278432    0.006765999383278432     0.006779008365696787     -0.006778410059082656    0.006766597689892554
0.07171129867028077       -0.003443891041378663    -8.716634207670276E-7    -2.7806162770003654E-7   -0.006891509319530426    0.006884054845984221     -0.006886279339005833    -0.006889284826508824    0.006889284826508824     0.006886279339005833     -0.006884054845984221    0.006891509319530426
0.0721570585795838        -0.003452519978440662    -6.843951909118203E-7    -3.124495219729995E-7    -0.00690834294054195     0.006901736973220693     -0.0069042365693964885   -0.006905843344366163    0.006905843344366163     0.0069042365693964885    -0.006901736973220693    0.00690834294054195
0.07317409115536748       -0.0034740393011311738   -3.995736232811371E-7    -3.452960038890737E-7    -0.006950658507147746    0.006945498697376944     -0.006948261065408068    -0.00694789613911663     0.00694789613911663      0.006948261065408068     -0.006945498697376944    0.006950658507147746
0.0752608584517287        -0.0035161044438169198   3.619877190673384E-7     -3.308665664542982E-7    -0.007032446390742455    0.007031971384525222     -0.007034618317056868    -0.007029799458210819    0.007029799458210819     0.007034618317056868     -0.007031971384525222    0.007032446390742455
0.07680201493766162       -0.0035459516695649637   3.775004006514911E-7     -2.684940318484977E-7    -0.0070918448140553664   0.007091961864204485     -0.007094109816459284    -0.007089696861800577    0.007089696861800577     0.007094109816459284     -0.007091961864204485    0.0070918448140553664
0.07839211442381387       -0.0035796107206203364   1.7079876023704394E-7    -1.3282786866160455E-7   -0.007159240356434608    0.007159202526046734     -0.00716026514899604     -0.007158177733485314    0.007158177733485314     0.00716026514899604      -0.007159202526046734    0.007159240356434608
0.07845851704024863       -0.003580985881705942    2.420500777509154E-7     -1.2945317522699762E-7   -0.007161763425879539    0.007162180100944225     -0.007163215726346055    -0.007160727800477722    0.007160727800477722     0.007163215726346055     -0.007162180100944225    0.007161763425879539
0.08144697129573941       -0.003642750050908334    4.097315773965378E-8     -2.0766143891598884E-7   -0.007286207828099112    0.00728479237553422      -0.00728645366704556     -0.007284546536587782    0.007284546536587782     0.00728645366704556      -0.00728479237553422     0.007286207828099112
0.08369954562795187       -0.0036929491914843545   4.673685757658355E-7     -8.883581808441376E-8    -0.0073848516205137485   0.007386945145423667     -0.0073876558319683535   -0.007384140933969071    0.007384140933969071     0.0073876558319683535    -0.007386945145423667    0.0073848516205137485
0.08754454814887208       -0.0037786359629718245   1.195198700514414E-6     1.1399203319388991E-7    -0.007553230361709329    0.007561313490177968     -0.007560401553912428    -0.007554142297974881    0.007554142297974881     0.007560401553912428     -0.007561313490177968    0.007553230361709329
0.08814318807350259       -0.003792240089569598    1.4014060393636865E-6    9.397378472632317E-8     -0.0075799000658821995   0.007589060292396193     -0.007588308502118393    -0.007580651856160011    0.007580651856160011     0.007588308502118393     -0.007589060292396193    0.0075799000658821995
0.08868394643096672       -0.0038050021131213313   9.202677816055043E-7     2.8870661735160173E-8    -0.007607127940250905    0.00761288051223442      -0.007612649546940549    -0.0076073589055447866   0.0076073589055447866    0.007612649546940549     -0.00761288051223442     0.007607127940250905
0.09087750351496088       -0.003855244506080272    -1.6129499893322057E-6   -1.6099523994048812E-7   -0.007715971843088302    0.007705006181232785     -0.0077062941431523205   -0.0077146838811687785   0.0077146838811687785    0.0077062941431523205    -0.007705006181232785    0.007715971843088302
0.09296107851420304       -0.0039064412372963484   -2.0416888192155534E-6   -1.0919212848816167E-7   -0.007819444309564294    0.007806320639621097     -0.007807194176649013    -0.00781857077253639     0.00781857077253639      0.007807194176649013     -0.007806320639621097    0.007819444309564294
0.0986040193172998        -0.004045225569240004    2.007325060114625E-6     -4.7199753625979374E-8   -0.008084617962314165    0.008096284314645845     -0.008096661912674864    -0.008084240364285157    0.008084240364285157     0.008096661912674864     -0.008096284314645845    0.008084617962314165
0.10064408738964878       -0.004096489901599181    1.250694406668597E-6     -1.2794164180736527E-7   -0.008189739486545583    0.008196220119851137     -0.008197243652985606    -0.008188715953411125    0.008188715953411125     0.008197243652985606     -0.008196220119851137    0.008189739486545583
0.10168821585081628       -0.004124280267791484    1.4842565374282375E-6    -4.2873349766540364E-8   -0.008244279259369746    0.008252841811796186     -0.008253184798594328    -0.008243936272571617    0.008243936272571617     0.008253184798594328     -0.008252841811796186    0.008244279259369746
0.10409530106283651       -0.004188346886015189    2.0226998151938943E-6    1.5323913581242032E-7    -0.008370012716041542    0.008383374828019208     -0.008382148914932717    -0.008371238629128043    0.008371238629128043     0.008382148914932717     -0.008383374828019208    0.008370012716041542
0.10684024183094495       -0.0042647844011906785   2.1127073187977024E-6    4.9540243638190165E-8    -0.008523032519450406    0.008536105085312303     -0.008535708763363202    -0.008523428841399512    0.008523428841399512     0.008535708763363202     -0.008536105085312303    0.008523032519450406
0.1087708268922148        -0.004319144007025899    -6.14912831294246E-7     -2.7474790031903127E-8   -0.008640242651705805    0.00863633337639779      -0.008636553174718049    -0.00864002285338555     0.00864002285338555      0.008636553174718049     -0.00863633337639779     0.008640242651705805
0.11017277378438302       -0.004359781191607187    -1.6447586744055438E-6   -3.4786901708471736E-7   -0.008725888135305924    0.008713236631122818     -0.008716019583259503    -0.00872310518316925     0.00872310518316925      0.008716019583259503     -0.008713236631122818    0.008725888135305924
0.11231346043779292       -0.0044220221287708614   -2.3746464882401942E-7   -1.693008954781368E-7    -0.008845433855070101    0.008842654660013338     -0.00884400906717717     -0.008844079447906278    0.008844079447906278     0.00884400906717717      -0.008842654660013338    0.008845433855070101
0.11704408994145224       -0.004565845513268461    -2.766642351146292E-6    -5.9526455045614844E-8   -0.009140229059410539    0.0091231529936633       -0.009123629205303678    -0.009139752847770178    0.009139752847770178     0.009123629205303678     -0.0091231529936633      0.009140229059410539
0.12152175553912126       -0.004706373919941084    -6.583605148489236E-8    1.3563675083145287E-7    -0.009412402801033289    0.009413092878731037     -0.009412007784724397    -0.009413487895039943    0.009413487895039943     0.009412007784724397     -0.009413092878731037    0.009412402801033289
0.126381964113174         -0.004867876982010626    -4.564334858286589E-7    -4.564943531287497E-8    -0.009737305862219985    0.009734202065822513     -0.009734567261305027    -0.009736940666737482    0.009736940666737482     0.009734567261305027     -0.009734202065822513    0.009737305862219985
0.1282061133013511        -0.0049284928331769905   -6.030337771342886E-7    -1.1369035253778056E-7   -0.00985924952909553     0.009854721803612427     -0.009855631326432739    -0.009858340006275229    0.009858340006275229     0.009855631326432739     -0.009854721803612427    0.00985924952909553
0.12971263559199434       -0.004985884645989571    -2.3811043190504663E-6   -1.2602515140624088E-7   -0.009979416705541914    0.009964121878416367     -0.009965130079627627    -0.009978408504330665    0.009978408504330665     0.009965130079627627     -0.009964121878416367    0.009979416705541914
0.13257377252343172       -0.005094881264373562    -5.757956640302958E-6    -1.4945099037563145E-7   -0.010207634202629531    0.010171890854864711     -0.010173086462787728    -0.010206438594706525    0.010206438594706525     0.010173086462787728     -0.010171890854864711    0.010207634202629531
0.13521420951043808       -0.0051965740080535715   -7.882266973190811E-6    -1.9845821797411596E-7   -0.010417588649898609    0.010368707382315673     -0.010370295048059478    -0.010416000984154815    0.010416000984154815     0.010370295048059478     -0.010368707382315673    0.010417588649898609
0.13708916555272982       -0.005266361065469564    -7.348974873446486E-6    -1.5915661412486073E-7   -0.010555405682015963    0.010510038579862288     -0.010511311832775299    -0.010554132429102964    0.010554132429102964     0.010511311832775299     -0.010510038579862288    0.010555405682015963
0.14072058611661475       -0.005401524850474194    -6.316093113081683E-6    -8.303714828533702E-8    -0.010822330128880772    0.010783769273016003     -0.010784433570202298    -0.010821665831694487    0.010821665831694487     0.010784433570202298     -0.010783769273016003    0.010822330128880772
0.14157308389962947       -0.005436250840373793    -4.4449707182203544E-6   -3.36304254831794E-8     -0.010885971114604178    0.010859032246890995     -0.010859301290294871    -0.01088570207120031     0.01088570207120031      0.010859301290294871     -0.010859032246890995    0.010885971114604178
0.14355410409236208       -0.005516946519089178    -9.688756639534657E-8    8.118009658257231E-8     -0.01103385898049121     0.011033927095865502     -0.011033277655092854    -0.011034508421263871    0.011034508421263871     0.011033277655092854     -0.011033927095865502    0.01103385898049121
0.14418570803989111       -0.005542709070529968    6.84734590812396E-8      2.9166669943652794E-8    -0.011085096054002916    0.011085740228116958     -0.01108550689475742     -0.011085329387362465    0.011085329387362465     0.01108550689475742      -0.011085740228116958    0.011085096054002916
0.14451981673507935       -0.005557755795361794    1.982176184057197E-6     6.441256757815961E-8     -0.0111093074119011      0.011121715769546075     -0.01112120046900546     -0.011109822712441726    0.011109822712441726     0.01112120046900546      -0.011121715769546075    0.0111093074119011
0.14578045907991066       -0.005614529350636488    9.202864317194915E-6     1.974006390637493E-7     -0.011200660505765132    0.011257456896780814     -0.011255877691668317    -0.01120223971087764     0.01120223971087764      0.011255877691668317     -0.011257456896780814    0.011200660505765132
0.1522508382904057        -0.005909136177893346    -2.3952655754365886E-7   1.5362787176063866E-8    -0.011818929484310617    0.011817615227262762     -0.011817492324965366    -0.011819052386608022    0.011819052386608022     0.011817492324965366     -0.011817615227262762    0.011818929484310617
0.15239529043296704       -0.005915717126995453    9.130000861237931E-8     6.8863413974884556E-9    -0.01183113280859948     0.011831735699382335     -0.011831680608651167    -0.011831187899330659    0.011831187899330659     0.011831680608651167     -0.011831735699382335    0.01183113280859948
0.1528244446437932        -0.005935170549046482    1.1166707185399273E-6    -1.564416606065897E-8    -0.01186705366260159     0.01187362853358434      -0.01187375368691284     -0.011866928509273098    0.011866928509273098     0.01187375368691284      -0.01187362853358434     0.01186705366260159
0.1529362682205516        -0.005940624448558581    1.105002010208364E-6     -2.134181296646724E-8    -0.011878019258338403    0.01188447853589592      -0.011884649270399665    -0.011877848523834668    0.011877848523834668     0.011884649270399665     -0.01188447853589592     0.011878019258338403
0.154478989055199         -0.006016980339001003    1.8501249392574135E-6    -1.094888438404453E-8    -0.012028454098721773    0.012039467257282242     -0.012039554848357328    -0.012028366507646698    0.012028366507646698     0.012039554848357328     -0.012039467257282242    0.012028454098721773
0.15759281079379373       -0.006169387970306322    2.140344748769313E-6     5.4747346834076395E-9    -0.012332333007427605    0.012345218873797689     -0.012345175075920232    -0.012332376805305072    0.012332376805305072     0.012345175075920232     -0.012345218873797689    0.012332333007427605
0.15816646753481683       -0.006198935986678476    6.211539954699908E-7     2.841931213613187E-8     -0.012395894834121998    0.012399849112591909     -0.01239962175809483     -0.012396122188619088    0.012396122188619088     0.01239962175809483      -0.012399849112591909    0.012395894834121998
0.16110177970651585       -0.006354902892221054    1.0717155842378427E-6    -9.759587796702809E-9    -0.012706629676040582    0.01271298189284364      -0.012713059969546022    -0.012706551599338207    0.012706551599338207     0.012713059969546022     -0.01271298189284364     0.012706629676040582
0.16227302650978703       -0.006417136729321628    1.251498445362176E-6     -2.499371346479526E-8    -0.012830618938161025    0.012837927979125486     -0.012838127928833211    -0.01283041898845331     0.01283041898845331      0.012838127928833211     -0.012837927979125486    0.012830618938161025
0.1623611769437942        -0.00642191448383282     1.3321721062471769E-6    -2.1137739700636415E-8   -0.012839917002305697    0.01284774093302558      -0.012847910034943195    -0.012839747900388094    0.012839747900388094     0.012847910034943195     -0.01284774093302558     0.012839917002305697
0.16245318602112746       -0.006427137164899427    1.1641378103434873E-6    -1.3918180183723041E-8   -0.012850837589088556    0.012857711070509153     -0.012857822415950631    -0.012850726243647088    0.012850726243647088     0.012857822415950631     -0.012857711070509153    0.012850837589088556
0.16381330574110425       -0.006503318896109464    -2.7082091781697215E-6   2.170075680370718E-8     -0.013014675616726219    0.012998599967711636     -0.012998426361657215    -0.01301484922278065     0.01301484922278065      0.012998426361657215     -0.012998599967711636    0.013014675616726219
0.1661201699465586        -0.006639416680244179    -1.77564696166137E-6     -7.500805208692372E-8    -0.013284460333581686    0.01327320638739503      -0.013273806451811733    -0.013283860269164994    0.013283860269164994     0.013273806451811733     -0.01327320638739503     0.013284460333581686
0.16795728533767182       -0.00674368896318874     1.538440512309909E-7     -1.2227626715261304E-7   -0.013487405499292393    0.013487350353462567     -0.013488328563599796    -0.013486427289155176    0.013486427289155176     0.013488328563599796     -0.013487350353462567    0.013487405499292393
0.1682437232384208        -0.00676149352268938     8.281734784001897E-7     -1.147412687707017E-7    -0.01352096149001864     0.013525012600738882     -0.013525930530889055    -0.013520043559868477    0.013520043559868477     0.013525930530889055     -0.013525012600738882    0.01352096149001864
0.1687455191384076        -0.0067926844193379405   2.009496693341852E-6     -1.0154109070570703E-7   -0.013579746512958676    0.013590991164393086     -0.013591803493118742    -0.013578934184233032    0.013578934184233032     0.013591803493118742     -0.013590991164393086    0.013579746512958676
0.170090776034138         -0.00686692520751119     2.498691433746347E-6     1.1769141688561573E-10   -0.013726353869955469    0.013741346960089284     -0.01374134601855796     -0.013726354811486806    0.013726354811486806     0.01374134601855796      -0.013741346960089284    0.013726353869955469
0.1715602830449872        -0.00696472224650254     -4.35745755279654E-6     2.1750446482248934E-8    -0.013942429863877538    0.013916459122132616     -0.013916285118560773    -0.013942603867449397    0.013942603867449397     0.013916285118560773     -0.013916459122132616    0.013942429863877538
0.17196395519526184       -0.006989620732865207    -3.8688403611796145E-6   5.375464950572557E-10    -0.01399084583662797     0.013967637094832851     -0.013967632794460906    -0.013990850136999931    0.013990850136999931     0.013967632794460906     -0.013967637094832851    0.01399084583662797
0.17291995317288889       -0.007048586660022898    -2.71167099316211E-6     -4.969997787604409E-8    -0.014105507132936786    0.014088839507154803     -0.014089237106977827    -0.01410510953311378     0.01410510953311378      0.014089237106977827     -0.014088839507154803    0.014105507132936786
0.17456669118707177       -0.0071612482179458006   1.9248672549728097E-6    -4.704911278304304E-8    -0.014316910030577813    0.014328082841205384     -0.01432845923410766     -0.014316533637675549    0.014316533637675549     0.01432845923410766      -0.014328082841205384    0.014316910030577813
0.17534338752391193       -0.007214385886832882    4.111725299136223E-6     -4.579881237735779E-8    -0.014416619793017862    0.01444092375431366      -0.014441290144812689    -0.014416253402518842    0.014416253402518842     0.014441290144812689     -0.01444092375431366     0.014416619793017862
0.17583747212820178       -0.007247338922475243    5.5710686482578255E-6    -3.728841314202438E-8    -0.014478113792658278    0.01451124189724269      -0.014511540204547837    -0.014477815485353141    0.014477815485353141     0.014511540204547837     -0.01451124189724269     0.014478113792658278
0.17635921325196574       -0.007281119105607518    4.632814220372734E-6     -2.2986170045337686E-8   -0.0145484317132341      0.014576044709195973     -0.014576228598556345    -0.014548247823873737    0.014548247823873737     0.014576228598556345     -0.014576044709195973    0.0145484317132341
0.17696434065451475       -0.007321191775095894    2.7748703255618744E-6    -2.637325335544927E-8    -0.014634164432228522    0.014650602668155049     -0.014650813654181902    -0.014633953446201678    0.014633953446201678     0.014650813654181902     -0.014650602668155049    0.014634164432228522