% Model:              Cylinder_slice_potential.mph
% Version:            COMSOL 6.2.0.339
% Date:               May 8 2024, 04:47
% Dimension:          1
% Nodes:              717
% Expressions:        11
% Description:        Line graph
% Arc length (m)          Magnetic scalar potential Magnetic scalar potential Magnetic scalar potential Magnetic scalar potential Magnetic scalar potential Magnetic scalar potential Magnetic scalar potential Magnetic scalar potential Magnetic scalar potential Magnetic scalar potential Magnetic scalar potential
0                         -0.0052225983689615256   -0.004848758346696041    -1.684677689513977E-7    -0.024992145649086993    -0.0041017521732408975   0.004100404431089276     -0.02499079790693536     0.02499079790693536      -0.004100404431089276    0.0041017521732408975    0.024992145649086993
0.0033246865570314313     -0.005162793746388266    -0.004772568810906798    -1.2920836449991796E-5   -0.02469497727129691     -0.004043802285743849    0.003940435594143904     -0.024591610579696953    0.024591610579696953     -0.003940435594143904    0.004043802285743849     0.02469497727129691
0.00636473557482856       -0.005109981333486671    -0.004703984202364906    -2.5362035576307148E-5   -0.024433363416373307    -0.003993438082426625    0.0037905417978161575    -0.02423046713176283     0.02423046713176283      -0.0037905417978161575   0.003993438082426625     0.024433363416373307
0.00798674793688477       -0.005081803371192341    -0.004667391015133226    -3.200001366927521E-5    -0.024293779842461477    -0.0039665663576921185   0.003710566248337907     -0.024037779733107258    0.024037779733107258     -0.003710566248337907    0.0039665663576921185    0.024293779842461477
0.01132830711223617       -0.005027108868740977    -0.0045893587496334196   -4.503320806741925E-5    -0.02400242681865191     -0.0038939913436880007   0.0035337256791486363    -0.023642161154112537    0.023642161154112537     -0.0035337256791486363   0.0038939913436880007    0.02400242681865191
0.014474288444120853      -0.004976734205345548    -0.004524394384671029    -5.667912222040836E-5    -0.023753368053585834    -0.003846431232203643    0.0033929982544403667    -0.023299935075822543    0.023299935075822543     -0.0033929982544403667   0.003846431232203643     0.023753368053585834
0.015136879516275875      -0.004966124542188827    -0.004510711910526622    -5.9131927221711913E-5   -0.023700912524844388    -0.003836414356089075    0.00336335893831537      -0.02322785710707067     0.02322785710707067      -0.00336335893831537     0.003836414356089075     0.023700912524844388
0.021934374951420702      -0.00485090449889751     -0.004366677689375124    -8.378046219795528E-5    -0.023136963914712233    -0.003733345919122193    0.0030631022215385417    -0.022466720217128564    0.022466720217128564     -0.0030631022215385417   0.003733345919122193     0.023136963914712233
0.024170798703183522      -0.004815242258356294    -0.004317518864795402    -9.146038532680206E-5    -0.022948882652406022    -0.0036879136189808467   0.0029562305363664216    -0.022217199569791582    0.022217199569791582     -0.0029562305363664216   0.0036879136189808467    0.022948882652406022
0.03153482986072671       -0.004700433126379459    -0.004175548464667552    -1.1528688992959149E-4   -0.022388659206479963    -0.0035869267009621232   0.0026646315815253823    -0.021466364087043208    0.021466364087043208     -0.0026646315815253823   0.0035869267009621232    0.022388659206479963
0.03409055025858704       -0.0046605880966428224   -0.004126276993684234    -1.2355598636880013E-4   -0.02219423111981357     -0.003551878733242279    0.0025634308422918693    -0.02120578322886315     0.02120578322886315      -0.0025634308422918693   0.003551878733242279     0.02219423111981357
0.03618202008905504       -0.004626784512544097    -0.004084809420002907    -1.3007174139598575E-4   -0.02202828425068088     -0.00352114620050449     0.002480572269336596     -0.02098771031951297     0.02098771031951297      -0.002480572269336596    0.00352114620050449      0.02202828425068088
0.03669076674503106       -0.004618650686438049    -0.004074176365301329    -1.3152227112168607E-4   -0.021985919553266856    -0.0035113168075146515   0.002459138638541155     -0.020933741384293342    0.020933741384293342     -0.002459138638541155    0.0035113168075146515    0.021985919553266856
0.03875539295499337       -0.004586072248604453    -0.004035379913710211    -1.371195884507602E-4    -0.021826762592142602    -0.003482473597724789    0.0023855168901186995    -0.0207298058845365      0.0207298058845365       -0.0023855168901186995   0.003482473597724789     0.021826762592142602
0.03884748313587484       -0.0045847648843910255   -0.00403355086448005     -1.373497602109718E-4    -0.02181958140306611     -0.003480521865502008    0.002381723783814225     -0.020720783321378312    0.020720783321378312     -0.002381723783814225    0.003480521865502008     0.02181958140306611
0.038999363790983066      -0.004582603583371437    -0.004030892018690303    -1.3779943333524345E-4   -0.021809080956154782    -0.0034786666226690297   0.0023762711559870736    -0.02070668548947281     0.02070668548947281      -0.0023762711559870736   0.0034786666226690297    0.021809080956154782
0.03901317190640884       -0.004582395316160167    -0.004030642567284107    -1.3783948642718014E-4   -0.021808076279881395    -0.003478495015240727    0.0023757791238232773    -0.02070536038846393     0.02070536038846393      -0.0023757791238232773   0.003478495015240727     0.021808076279881395
0.050315915945901         -0.004411916513787501    -0.003826452110614568    -1.706252672662728E-4    -0.020985690428483812    -0.0033380243733338124   0.0019730222352036214    -0.019620688290353613    0.019620688290353613     -0.0019730222352036214   0.0033380243733338124    0.020985690428483812
0.05089202243931808       -0.004403010798800259    -0.0038162046691957944   -1.7203740642668727E-4   -0.020942785230894663    -0.0033307420356936328   0.0019544427842801255    -0.01956648597948115     0.01956648597948115      -0.0019544427842801255   0.0033307420356936328    0.020942785230894663
0.05495215919123558       -0.004344938785479761    -0.0037499564491396504   -1.8251508008759504E-4   -0.02066980723872887     -0.0032900520968098326   0.0018299314561090632    -0.019209686598028096    0.019209686598028096     -0.0018299314561090632   0.0032900520968098326    0.02066980723872887
0.061597569294137955      -0.004251882565444936    -0.003640129492898803    -1.999580211801011E-4    -0.020223985694306695    -0.0032164554325269648   0.0016167912630861473    -0.01862432152486588     0.01862432152486588      -0.0016167912630861473   0.0032164554325269648    0.020223985694306695
0.06342824076960701       -0.004223887449960574    -0.003611504114386242    -2.0505068678433366E-4   -0.02010248999021722     -0.003206940190374937    0.0015665346961002589    -0.018462084495942544    0.018462084495942544     -0.0015665346961002589   0.003206940190374937     0.02010248999021722
0.06396701713177623       -0.00421578418657809     -0.003602556223314155    -2.0652038489993175E-4   -0.02006531858269838     -0.0032021818363860365   0.0015500187571865739    -0.018413155503498924    0.018413155503498924     -0.0015500187571865739   0.0032021818363860365    0.02006531858269838
0.06548313173781777       -0.0041974624192424315   -0.0035789645107235837   -2.1000850079975125E-4   -0.019971852373854626    -0.0031820026968849137   0.0015019346904868959    -0.018291784367456612    0.018291784367456612     -0.0015019346904868959   0.0031820026968849137    0.019971852373854626
0.06870393378816578       -0.004152166407550981    -0.003530327180779054    -2.1765879074865573E-4   -0.019765949520433753    -0.003157283890229843    0.001416013564240589     -0.018024679194444504    0.018024679194444504     -0.001416013564240589    0.003157283890229843     0.019765949520433753
0.07756534305186838       -0.004031078880642979    -0.0033934542910798813   -2.378333302116949E-4    -0.01919385395537239     -0.0030695384328004883   0.0011668717911069212    -0.01729118731367883     0.01729118731367883      -0.0011668717911069212   0.0030695384328004883    0.01919385395537239
0.08199789877141768       -0.0039734228724329496   -0.0033308249347314533   -2.4653910352016384E-4   -0.018925476963140925    -0.003031785473409139    0.0010594726452478206    -0.01695316413497961     0.01695316413497961      -0.0010594726452478206   0.003031785473409139     0.018925476963140925
0.08660648446836737       -0.003909675735320959    -0.003264245640735663    -2.559301253738098E-4    -0.01863580889434416     -0.0029971059530603324   9.496649500698464E-4     -0.01658836789135367     0.01658836789135367      -9.496649500698464E-4    0.0029971059530603324    0.01863580889434416
0.09071489700134462       -0.003859944759126707    -0.003210483490591263    -2.6451906425084835E-4   -0.018409416247030606    -0.0029696372105237944   8.53484696516999E-4      -0.016293263733023814    0.016293263733023814     -8.53484696516999E-4     0.0029696372105237944    0.018409416247030606
0.09116366897196052       -0.0038545125227073588   -0.0032046109191610117   -2.654572550957085E-4    -0.018384686823280594    -0.0029666367324511773   8.429786916855011E-4     -0.016261028782514925    0.016261028782514925     -8.429786916855011E-4    0.0029666367324511773    0.018384686823280594
0.09304135122096249       -0.0038300293669645395   -0.003180107177409119    -2.6879044889513616E-4   -0.01827554206173699     -0.0029554245938788488   8.051010027177508E-4     -0.016125218470575898    0.016125218470575898     -8.051010027177508E-4    0.0029554245938788488    0.01827554206173699
0.09658655798321293       -0.0037846198688184273   -0.003130696844936848    -2.7490885396973393E-4   -0.01806096568832635     -0.0029224862130526504   7.232153812947702E-4     -0.015861694856568468    0.015861694856568468     -7.232153812947702E-4    0.0029224862130526504    0.01806096568832635
0.09849347384013259       -0.0037601947512225734   -0.003104119735954004    -2.781998562830664E-4    -0.017945548135439443    -0.0029047691305491567   6.791702802846168E-4     -0.015719949285174898    0.015719949285174898     -6.791702802846168E-4    0.0029047691305491567    0.017945548135439443
0.10239822824869743       -0.0037169257149638627   -0.0030550123892025692   -2.851451455778551E-4    -0.017739469179846867    -0.002871766319991427    5.906051553685773E-4     -0.015458308015224017    0.015458308015224017     -5.906051553685773E-4    0.002871766319991427     0.017739469179846867
0.1038165672320555        -0.0037011541210986883   -0.0030359363504292697   -2.876745177049974E-4    -0.017660815364305193    -0.002856198879910446    5.548027382704582E-4     -0.015359419222665201    0.015359419222665201     -5.548027382704582E-4    0.002856198879910446     0.017660815364305193
0.10505374135425401       -0.0036859805054765297   -0.00302114068265459     -2.8964436894935255E-4   -0.017593960534714254    -0.0028500385128081437   5.328835612133145E-4     -0.015276805583119422    0.015276805583119422     -5.328835612133145E-4    0.0028500385128081437    0.017593960534714254
0.1094875539049439        -0.0036316009592366515   -0.002968115634443396    -2.967039663120047E-4    -0.017354364687051524    -0.0028279608501049274   4.543291196088814E-4     -0.014980732956555477    0.014980732956555477     -4.543291196088814E-4    0.0028279608501049274    0.017354364687051524
0.11038046321189776       -0.0036207249001213625   -0.0029574129100132327   -2.980151079517055E-4    -0.017305748962089258    -0.0028228493616038195   4.387284979901666E-4     -0.014921628098475605    0.014921628098475605     -4.387284979901666E-4    0.0028228493616038195    0.017305748962089258
0.11277493133836212       -0.003593979826280327    -0.002929066555142246    -3.016989369803807E-4    -0.017181955065908926    -0.002806035760787629    3.9244426494457424E-4    -0.014768363570065874    0.014768363570065874     -3.9244426494457424E-4   0.002806035760787629     0.017181955065908926
0.11468115041528722       -0.0035726882628612597   -0.002906500223262878    -3.046316071182622E-4    -0.017083403623984215    -0.0027926505725391843   3.5559771559307766E-4    -0.014646350767038109    0.014646350767038109     -3.5559771559307766E-4   0.0027926505725391843    0.017083403623984215
0.11825198450614186       -0.0035315366803415965   -0.0028626843385409374   -3.1010647071757965E-4   -0.016891552259176337    -0.002765405537809957    2.8455377206931023E-4    -0.01441070049343569     0.01441070049343569      -2.8455377206931023E-4   0.002765405537809957     0.016891552259176337
0.11985987783690918       -0.0035125547718637485   -0.0028442660969182805   -3.1213412843724217E-4   -0.016806444348231326    -0.002756225260776334    2.591522332783875E-4     -0.014309371320733375    0.014309371320733375     -2.591522332783875E-4    0.002756225260776334     0.016806444348231326
0.1206808457332966        -0.003502191849437685    -0.002834606064285699    -3.132147437464026E-4    -0.016761060866718098    -0.0027522934689673565   2.4657551899612685E-4    -0.014255342916746863    0.014255342916746863     -2.4657551899612685E-4   0.0027522934689673565    0.016761060866718098
0.12217149080167165       -0.0034858125851046293   -0.002818813968162871    -3.1525434728724703E-4   -0.016689084463846877    -0.0027458341234283604   2.2379934513037456E-4    -0.014167049685548886    0.014167049685548886     -2.2379934513037456E-4   0.0027458341234283604    0.016689084463846877
0.12677312047519362       -0.0034338880726594648   -0.002765522519967677    -3.2142705787697773E-4   -0.016450051936729892    -0.0027144996460920284   1.4308318307619736E-4    -0.013878635473714056    0.013878635473714056     -1.4308318307619736E-4   0.0027144996460920284    0.016450051936729892
0.12724666120232614       -0.0034287327403263314   -0.002760630085894219    -3.2197440865955454E-4   -0.016427253372973558    -0.002712322411668228    1.3652714239178172E-4    -0.013851458103697107    0.013851458103697107     -1.3652714239178172E-4   0.002712322411668228     0.016427253372973558
0.12739814038322694       -0.0034270836202520707   -0.0027590650633658588   -3.221494986644042E-4    -0.016419960425259353    -0.002711625944251067    1.344299549358235E-4     -0.013842764435944104    0.013842764435944104     -1.344299549358235E-4    0.002711625944251067     0.016419960425259353
0.1284539912157543        -0.0034166822081400125   -0.002747446596359965    -3.2347622431716576E-4   -0.016369609102628604    -0.0027028802700685486   1.1507047553121222E-4    -0.013781799308091263    0.013781799308091263     -1.1507047553121222E-4   0.0027028802700685486    0.016369609102628604
0.12877993124221143       -0.0034134713033089955   -0.0027438599879806096   -3.238857831118748E-4    -0.01635406570300734     -0.0027001804897713523   1.0909422487634366E-4    -0.013762979438112326    0.013762979438112326     -1.0909422487634366E-4   0.0027001804897713523    0.01635406570300734
0.1292543817080219        -0.0034082694904553285   -0.0027381465338890193   -3.2442581674812815E-4   -0.016328681849570252    -0.0026956038877489286   1.0019735376389326E-4    -0.013733275315585207    0.013733275315585207     -1.0019735376389326E-4   0.0026956038877489286    0.016328681849570252
0.13133568325286887       -0.0033846242794176      -0.002715549642076329    -3.269265943170895E-4    -0.01622360386233257     -0.002685106744662163    6.969399012543701E-5     -0.013608191107795833    0.013608191107795833     -6.969399012543701E-5    0.002685106744662163     0.01622360386233257
0.1318082301576335        -0.0033792485636594868   -0.002710346940970454    -3.2752040466088107E-4   -0.016199619568873884    -0.00268262531423593     6.246207694887215E-5     -0.013579456331586817    0.013579456331586817     -6.246207694887215E-5    0.00268262531423593      0.016199619568873884
0.13372477576519676       -0.0033574458509132207   -0.002689245937342262    -3.299287679252349E-4    -0.016102344585554193    -0.0026725611819013013   3.313103849941331E-5     -0.013462914442152288    0.013462914442152288     -3.313103849941331E-5    0.0026725611819013013    0.016102344585554193
0.14117107661765088       -0.0032806520437671186   -0.0026142054814521664   -3.375577365065423E-4    -0.015754151477916922    -0.0026315433028484443   -6.891858920390269E-5    -0.01305368958586457     0.01305368958586457      6.891858920390269E-5     0.0026315433028484443    0.015754151477916922
0.14124447014138466       -0.0032798409064379933   -0.002613415246565792    -3.376271639228863E-4    -0.015750436208264926    -0.002631072582512948    -6.994472887015079E-5    -0.013049418896881822    0.013049418896881822     6.994472887015079E-5     0.002631072582512948     0.015750436208264926
0.14314308375302676       -0.0032588576330421747   -0.002592972697477848    -3.39423178489102E-4     -0.015654326072474318    -0.0026188955403056166   -9.648988760720795E-5    -0.01293894064456149     0.01293894064456149      9.648988760720795E-5     0.0026188955403056166    0.015654326072474318
0.1463121386884424        -0.0032288779348972193   -0.0025603765806254046   -3.4395204618706694E-4   -0.015514693796418927    -0.0025991820568300574   -1.5243431266648584E-4   -0.01276307742692239     0.01276307742692239      1.5243431266648584E-4    0.0025991820568300574    0.015514693796418927
0.14637804652913633       -0.0032282924453389704   -0.002559682342194486    -3.440475660499679E-4    -0.015511822181461278    -0.0025986524001054044   -1.5372812829434675E-4   -0.012759441653061532    0.012759441653061532     1.5372812829434675E-4    0.0025986524001054044    0.015511822181461278
0.14645064358456938       -0.0032275963328187197   -0.0025589749687559707   -3.4410541960809777E-4   -0.015508539250337749    -0.002598153919062878    -1.5468943780191214E-4   -0.012755695893472961    0.012755695893472961     1.5468943780191214E-4    0.002598153919062878     0.015508539250337749
0.1466378414809608        -0.003225794079730603    -0.0025571713957889147   -3.443101051518135E-4    -0.015500342767435208    -0.002597166448512805    -1.5731439270171108E-4   -0.0127458619262207      0.0127458619262207       1.5731439270171108E-4    0.002597166448512805     0.015500342767435208
0.15524534835980724       -0.0031429250616891663   -0.0024742416886731153   -3.537217078433797E-4    -0.015123462020771208    -0.0025517617740145465   -2.78011888732499E-4     -0.012293688358024163    0.012293688358024163     2.78011888732499E-4      0.0025517617740145465    0.015123462020771208
0.17547379649317488       -0.0029495082239279933   -0.0022901439705894982   -3.683295215312833E-4    -0.014242766445749637    -0.002444733550037654    -5.019026222126189E-4    -0.011296130273499351    0.011296130273499351     5.019026222126189E-4     0.002444733550037654     0.014242766445749637
0.17636983355901487       -0.00294106448477252     -0.0022821581260810842   -3.688422508018576E-4    -0.014203972350995743    -0.0024397144119056545   -5.110235945092128E-4    -0.011253234344580865    0.011253234344580865     5.110235945092128E-4     0.0024397144119056545    0.014203972350995743
0.1769988791761449        -0.00293553878411679     -0.0022764282209958944   -3.694207265345608E-4    -0.01417804513735953     -0.0024358900008923587   -5.194758113841336E-4    -0.011222679325083024    0.011222679325083024     5.194758113841336E-4     0.0024358900008923587    0.01417804513735953
0.1795810452295349        -0.002912311193874236    -0.0022541163767361098   -3.7201764339506583E-4   -0.01407504209153709     -0.002425797316040131    -5.503438311204015E-4    -0.011098900944376542    0.011098900944376542     5.503438311204015E-4     0.002425797316040131     0.01407504209153709
0.18067478638099846       -0.0029034298741578285   -0.0022447396928271745   -3.731837001245094E-4    -0.014033813627295243    -0.0024200941306639135   -5.653754703321673E-4    -0.011048344026299148    0.011048344026299148     5.653754703321673E-4     0.0024200941306639135    0.014033813627295243
0.1823153434037372        -0.0028896416205729898   -0.0022318715241956767   -3.742113638596972E-4    -0.013971743269171827    -0.0024131767868798507   -5.805141239977325E-4    -0.010978052358294226    0.010978052358294226     5.805141239977325E-4     0.0024131767868798507    0.013971743269171827
0.18318363663046602       -0.002882512629419725    -0.0022250206921853237   -3.747038443659753E-4    -0.013938902712859351    -0.0024088521951804356   -5.887785597473725E-4    -0.010941271957931526    0.010941271957931526     5.887785597473725E-4     0.0024088521951804356    0.013938902712859351
0.1846152622957228        -0.0028697535261959393   -0.0022133798716961486   -3.7551708997619687E-4   -0.013881715027385139    -0.002402700922601366    -6.014357972082143E-4    -0.010877578307575542    0.010877578307575542     6.014357972082143E-4     0.002402700922601366     0.013881715027385139
0.19326499594858843       -0.002792517972064085    -0.002142448158482041    -3.8101666937679816E-4   -0.01353644709708151     -0.0023663752088251564   -6.817581461892348E-4    -0.010488313742067101    0.010488313742067101     6.817581461892348E-4     0.0023663752088251564    0.01353644709708151
0.1960895184911181        -0.0027696689284633924   -0.002121907024841601    -3.825893399610839E-4    -0.013435416291295944    -0.0023567405774423656   -7.039741422463113E-4    -0.010374701571607253    0.010374701571607253     7.039741422463113E-4     0.0023567405774423656    0.013435416291295944
0.20137522106301628       -0.0027265052216224866   -0.0020815513375793894   -3.8519136800767685E-4   -0.01323842992801387     -0.0023324090415239116   -7.49121902537509E-4     -0.010156898983952433    0.010156898983952433     7.49121902537509E-4      0.0023324090415239116    0.01323842992801387
0.20304358327608796       -0.0027127178316592344   -0.002068261132719651    -3.8551675475710065E-4   -0.013172286080505847    -0.002321414753868896    -7.62719284187915E-4     -0.01008815204244902     0.01008815204244902      7.62719284187915E-4      0.002321414753868896     0.013172286080505847
0.20646357714542649       -0.0026844549108264214   -0.0020410173970449655   -3.861837685982643E-4    -0.013036697087180821    -0.0022988774438751206   -7.905927049109997E-4    -0.009947226938394685    0.009947226938394685     7.905927049109997E-4     0.0022988774438751206    0.013036697087180821
0.2078402622848817        -0.0026738715572405675   -0.0020318795496332177   -3.875920847465833E-4    -0.012993750102367144    -0.002298263873404861    -8.024728045678109E-4    -0.009893013424394456    0.009893013424394456     8.024728045678109E-4     0.002298263873404861     0.012993750102367144
0.2109911294875209        -0.002649510552247317    -0.0020093495576125543   -3.8818521069023705E-4   -0.01287981062009327     -0.002281768411103986    -8.23713274417915E-4     -0.009774328934571351    0.009774328934571351     8.23713274417915E-4      0.002281768411103986     0.01287981062009327
0.22449069558118612       -0.002544622062560045    -0.0019140208660375548   -3.9154355783847566E-4   -0.012397480954586676    -0.002218992704346488    -9.133557583613202E-4    -0.009265132491878849    0.009265132491878849     9.133557583613202E-4     0.002218992704346488     0.012397480954586676
0.22492951992590324       -0.0025411491784991277   -0.0019109123703967984   -3.916239993940252E-4    -0.01238153146576477     -0.0022169347517682525   -9.160572433839525E-4    -0.009248539470612547    0.009248539470612547     9.160572433839525E-4     0.0022169347517682525    0.01238153146576477
0.22535639420981282       -0.0025379118062494976   -0.0019081209816168949   -3.9176722678134544E-4   -0.01236725546447508     -0.0022156082394770844   -9.185295747736828E-4    -0.009233117650224295    0.009233117650224295     9.185295747736828E-4     0.0022156082394770844    0.01236725546447508
0.23123451925311733       -0.0024936830379532035   -0.0018691821358223705   -3.939091060361623E-4    -0.012170548907518184    -0.002195816755705366    -9.554560925839357E-4    -0.009019276059228865    0.009019276059228865     9.554560925839357E-4     0.002195816755705366     0.012170548907518184
0.23366959949165067       -0.002477010554607694    -0.0018538278801897646   -3.9468710205472644E-4   -0.012094253158003603    -0.002186210939572824    -9.712858768649907E-4    -0.008936756341565771    0.008936756341565771     9.712858768649907E-4     0.002186210939572824     0.012094253158003603
0.23772311492002887       -0.0024479537511070404   -0.0018281027407080384   -3.9539805445880594E-4   -0.011961807942173438    -0.0021699929377452707   -9.9319149792518E-4      -0.008798623506502968    0.008798623506502968     9.9319149792518E-4       0.0021699929377452707    0.011961807942173438
0.23986523474956148       -0.00243259839942247     -0.0018145080394234444   -3.9577376420249434E-4   -0.011891815973925267    -0.0021614223762353823   -0.001004767737384575    -0.008725625860305293    0.008725625860305293     0.001004767737384575     0.0021614223762353823    0.011891815973925267
0.24342350494282164       -0.0024064009250884316   -0.0017912779812467485   -3.9607259325617213E-4   -0.011770926166941812    -0.002145322466588083    -0.0010232582794612959   -0.008602345420892417    0.008602345420892417     0.0010232582794612959    0.002145322466588083     0.011770926166941812
0.24602292919493546       -0.002389024007920824    -0.00177513673734438     -3.961742182830173E-4    -0.011688155101006873    -0.0021320590693235733   -0.001037334676940568    -0.008518761354742718    0.008518761354742718     0.001037334676940568     0.0021320590693235733    0.011688155101006873
0.24812379993998776       -0.0023747853735457142   -0.0017626497971922734   -3.9657371548048844E-4   -0.011623815000590218    -0.0021246735064073567   -0.001047916217436553    -0.008451225276746296    0.008451225276746296     0.001047916217436553     0.0021246735064073567    0.011623815000590218
0.25090801130994234       -0.0023559154036472      -0.0017461012870903007   -3.971031553054199E-4    -0.011538547289786996    -0.002114885675198193    -0.0010619395672451684   -0.008361722047343622    0.008361722047343622     0.0010619395672451684    0.002114885675198193     0.011538547289786996
0.25525085298940225       -0.0023252892816258515   -0.001720121503088935    -3.9733528263449785E-4   -0.011400284203056513    -0.0020991270765531047   -0.00107955518452288     -0.008221601941980518    0.008221601941980518     0.00107955518452288      0.0020991270765531047    0.011400284203056513
0.25561249063252595       -0.002322738979449697    -0.0017179581113402668   -3.973546123698158E-4    -0.011388770742399471    -0.0020978148246006793   -0.0010810220743578491   -0.00820993384344093     0.00820993384344093      0.0010810220743578491    0.0020978148246006793    0.011388770742399471
0.26159706985224385       -0.002284654289840135    -0.0016843097540227218   -3.9767168140925844E-4   -0.011212924567385487    -0.0020743074080249385   -0.0011070660432491307   -0.008031551116111403    0.008031551116111403     0.0011070660432491307    0.0020743074080249385    0.011212924567385487
0.26831501054591506       -0.002241242371597091    -0.0016466533316483204   -3.978648559151833E-4    -0.011013904161799894    -0.0020489346754115224   -0.001133984171909946    -0.00783098531447841     0.00783098531447841      0.001133984171909946     0.0020489346754115224    0.011013904161799894
0.2699634907914856        -0.00223057361990032     -0.0016370851223722956   -3.9788732703205794E-4   -0.010963951915045777    -0.002041657435444488    -0.0011414411808119774   -0.007780853298789296    0.007780853298789296     0.0011414411808119774    0.002041657435444488     0.010963951915045777
0.27170431431061937       -0.002219942157023251    -0.0016275654595546717   -3.9768894335445086E-4   -0.010913336466128338    -0.0020335678380353256   -0.001147943708800283    -0.007731824919292713    0.007731824919292713     0.001147943708800283     0.0020335678380353256    0.010913336466128338
0.2764247425246938        -0.0021899909985321937   -0.0016027181897482858   -3.9734495698086217E-4   -0.010777516394232712    -0.0020175524001039263   -0.0011612072557429715   -0.007598756738385797    0.007598756738385797     0.0011612072557429715    0.0020175524001039263    0.010777516394232712
0.28377381908736415       -0.0021447319645593373   -0.0015639250912639748   -3.97659462496855E-4     -0.010571877052898034    -0.001992949194660677    -0.0011883265053141627   -0.007390601352923177    0.007390601352923177     0.0011883265053141627    0.001992949194660677     0.010571877052898034
0.2843144909504452        -0.0021414022555801644   -0.0015610710814229643   -3.9768260068052074E-4   -0.01055674815815132     -0.001991139135830655    -0.0011903216696135107   -0.0073752873527071355   0.0073752873527071355    0.0011903216696135107    0.001991139135830655     0.01055674815815132
0.29433374078009494       -0.002083353326922935    -0.0015115473582760384   -3.968330099400465E-4    -0.010288680768434179    -0.0019552674607424426   -0.001219396618777927    -0.00711401668891379     0.00711401668891379      0.001219396618777927     0.0019552674607424426    0.010288680768434179
0.2945306161163012        -0.0020822126824096114   -0.0015105742315639078   -3.9681631572984985E-4   -0.010283413322430355    -0.0019545625927919123   -0.001219967933046884    -0.007108882796591537    0.007108882796591537     0.001219967933046884     0.0019545625927919123    0.010283413322430355
0.2979164558985214        -0.002062309970700123    -0.0014933686931159781   -3.963750770523272E-4    -0.010190226328957497    -0.0019409864461570098   -0.0012300141702616051   -0.007019225712538862    0.007019225712538862     0.0012300141702616051    0.0019409864461570098    0.010190226328957497