% Model:              Sphere_potential.mph
% Version:            COMSOL 6.2.0.278
% Date:               Oct 11 2024, 12:26
% Dimension:          1
% Nodes:              519
% Expressions:        11
% Description:        Line graph
% Arc length (m)          Magnetic scalar potential Magnetic scalar potential Magnetic scalar potential Magnetic scalar potential Magnetic scalar potential Magnetic scalar potential Magnetic scalar potential Magnetic scalar potential Magnetic scalar potential Magnetic scalar potential Magnetic scalar potential
0                         8.645312016606751E-6     2.2163235898258783E-5    2.0976183541588006E-5    1.676850658941728E-4     1.3310381782824857E-4    3.470565050534696E-5     -1.2440243892311575E-7   1.2440243890923797E-7    -3.470565050534696E-5    -1.3310381782824857E-4   -1.676850658941624E-4
0.07021137429281599       8.703590637715048E-6     0.02341994170403145      2.097995607893907E-5     0.07036115211768544      0.07032633775513485      -0.07015849810650276     0.0701933124690535       -0.0701933124690535      0.07015849810650276      -0.07032633775513485     -0.07036115211768543
0.1247582125135317        8.749361368615648E-6     0.04159755046387669      2.0982312247613084E-5    0.12489407936335725      0.12485908191788299      -0.12469122341990245     0.1247262208653768       -0.1247262208653768      0.12469122341990245      -0.12485908191788299     -0.12489407936335722
0.13209144760226552       8.755615013760073E-6     0.04404133438699327      2.0982653411580387E-5    0.13222544500465316      0.13219042254459829      -0.13202256131730608     0.132057583777361        -0.132057583777361       0.13202256131730608      -0.13219042254459829     -0.13222544500465314
0.17014520332201608       8.789183492608627E-6     0.056722664047600554     2.0985547481269795E-5    0.1702695126997116       0.1702343559657413       -0.17006647158589164     0.17010162831986173      -0.1701016283198617      0.17006647158589164      -0.1702343559657413      -0.17026951269971158
0.21902109730711522       8.829971391050625E-6     0.07301044471229545      2.0988030276175226E-5    0.219132946200773        0.21909762631520882      -0.21892972207299968     0.21896504195856367      -0.21896504195856364     0.21892972207299968      -0.21909762631520882     -0.21913294620077298
0.23675039940331588       8.844898101810841E-6     0.07891869450675412      2.098888569444443E-5     0.23685772885924367      0.23682234926683643      -0.23665443818128107     0.2366898177736882       -0.23668981777368808     0.23665443818128107      -0.23682234926683643     -0.23685772885924364
0.291600217151469         8.891077435902329E-6     0.09719727212239906      2.0991532134542745E-5    0.29169356465060725      0.29165800034086353      -0.29149006808378713     0.29152563239353085      -0.29152563239353074     0.29149006808378713      -0.29165800034086353     -0.29169356465060725
0.31163319483378826       8.908850365307863E-6     0.10387321770090002      2.0992824060896836E-5    0.31172144209967434      0.31168580669821305      -0.3115178641057258      0.3115534995071872       -0.3115534995071871      0.3115178641057258       -0.31168580669821305     -0.31172144209967434
0.3391362745488324        8.932892510530449E-6     0.11303855864546736      2.0994655150197855E-5    0.3392175203420241       0.3391817887719818       -0.33901383153078013     0.33904956310082246      -0.3390495631008223      0.33901383153078013      -0.3391817887719818      -0.3392175203420241
0.4039728405120053        8.988718026538972E-6     0.1346451999856913       2.099809778958843E-5     0.4040375697842854       0.40400161491217923      -0.40383363012986223     0.4038695850019683       -0.4038695850019681      0.40383363012986223      -0.40400161491217923     -0.4040375697842854
0.42079345207248237       9.003200892899153E-6     0.14025063136089527      2.0998990916773486E-5    0.42085389644813875      0.4208178836445673       -0.4206498917172327      0.4206859045208041       -0.420685904520804       0.4206498917172327       -0.4208178836445673      -0.42085389644813875
0.46978602354391436       9.04510425931088E-6      0.15657729597919612      2.10011180161538E-5      0.46983398261817166      0.46979780220113454      -0.4696297932570047      0.4696659736740416       -0.4696659736740415      0.4696297932570047       -0.46979780220113454     -0.46983398261817166
0.5175058967864992        9.086281166983522E-6     0.1724798384593167       2.100372446979873E-5     0.5175417028381631       0.5175053577134953       -0.5173373279177366      0.5173736730424038       -0.5173736730424037      0.5173373279177366       -0.5175053577134953      -0.5175417028381631
0.5510277012782953        9.115206731005873E-6     0.1836509058515362       2.1005555426668356E-5    0.5510549701897771       0.551018509362853        -0.5508504649194396      0.5508869257463627       -0.5508869257463624      0.5508504649194396       -0.551018509362853       -0.5510549701897771
0.5797541727886405        9.14017370569017E-6      0.19322393962328058      2.1007434868354838E-5    0.5797741289567262       0.5797375682619036       -0.5795695087829567      0.5796060694777783       -0.579606069477778       0.5795695087829567       -0.5797375682619036      -0.5797741289567262
0.5800785213957383        9.140455606077968E-6     0.19333202808685843      2.1007456089001172E-5    0.5800983949961432       0.580061833173719        -0.5798937735250067      0.5799303353474301       -0.5799303353474299      0.5798937735250067       -0.580061833173719       -0.5800983949961432
0.6373408446847451        9.191274475312244E-6     0.21241457328683416      2.1011524463493067E-5    0.6373461485073069       0.6373093834094058       -0.6371412912136977      0.6371780563115977       -0.6371780563115975      0.6371412912136977       -0.6373093834094058      -0.6373461485073069
0.7239333056576341        9.269774144758831E-6     0.2412713297545534       2.1018053246042376E-5    0.7239166010249338       0.723879521928355        -0.7237113775023861      0.7237484565989644       -0.7237484565989643      0.7237113775023861       -0.723879521928355       -0.7239166010249337
0.7615510108564388        9.30385307103352E-6      0.25380735113750347      2.1020526674106303E-5    0.7615247432253488       0.761487527813065        -0.7613193635996715      0.7613565790119549       -0.7613565790119547      0.7613193635996715       -0.761487527813065       -0.7615247432253487
0.8311257153273054        9.365785634750671E-6     0.27699297233617076      2.1024356521446175E-5    0.8310817460058673       0.8310442828633287       -0.8308760880111561      0.8309135511536947       -0.8309135511536947      0.8308760880111561       -0.8310442828633287      -0.8310817460058673
0.8642955258917008        9.39556133545597E-6      0.2880467409709664       2.1026349161757827E-5    0.864243119432217        0.8642055371868754       -0.8640373263935803      0.864074908638922        -0.864074908638922       0.8640373263935803       -0.8642055371868754      -0.864243119432217
0.9007432367270187        9.42789031971509E-6      0.3001928622997958       2.1028752040823037E-5    0.90068155768819         0.9006438461269115       -0.9004756161105839      0.9005133276718627       -0.9005133276718627      0.9004756161105839       -0.9006438461269115      -0.90068155768819
0.9918631575311734        9.508713351339781E-6     0.33055838013879657      2.103475928092336E-5     0.9917782968802162       0.9917402620268114       -0.9915719839525627      0.9916100188059681       -0.9916100188059681      0.9915719839525627       -0.9917402620268114      -0.9917782968802162
1.0276835406872862        9.540462707324218E-6     0.3424954474452051       2.1037200362863245E-5    1.0275895720624812       1.0275514102116527       -1.0273831126087485      1.0274212744595779       -1.0274212744595779      1.0273831126087485       -1.0275514102116527      -1.0275895720624812
1.0520197643711833        9.562033091585313E-6     0.3506054427747475       2.1038858824079694E-5    1.0519196078257218       1.051881359693356        -1.0517130488227624      1.0517512969551284       -1.0517512969551284      1.0517130488227624       -1.051881359693356       -1.0519196078257218
1.0877852896346794        9.590167358267294E-6     0.36252422591315886      2.1038989716155518E-5    1.0876760140330577       1.0876376533636252       -1.0874693414458947      1.0875077021153279       -1.0875077021153279      1.0874693414458947       -1.0876376533636252      -1.0876760140330577
1.1391275443847537        9.634048954947202E-6     0.37963392340097113      2.1041766621406402E-5    1.139005205367309        1.1389666691714897       -1.1387983350385174      1.1388368712343373       -1.1388368712343373      1.1387983350385174       -1.1389666691714897      -1.139005205367309
1.2293415451346377        9.721480440742173E-6     0.4096975652372685       2.1055052776631014E-5    1.2291963588837937       1.2291574729620316       -1.2289890325398172      1.2290279184615802       -1.2290279184615802      1.2289890325398172       -1.2291574729620316      -1.2291963588837937
1.2378692494819838        9.729145036088595E-6     0.41253940521432153      2.1055725003436485E-5    1.2377218968330506       1.2376829802529072       -1.2375145344528782      1.2375534510330226       -1.2375534510330226      1.2375145344528782       -1.2376829802529072      -1.2377218968330506
1.2412156342800853        9.732448777134521E-6     0.4136545816033962       2.1056098036462828E-5    1.2410674340998886       1.241028504304781        -1.2408600555204878      1.2408989853155967       -1.2408989853155967      1.2408600555204878       -1.241028504304781       -1.2410674340998886
1.2749163103396197        9.759676680853955E-6     0.42488525735664795      2.105397665605642E-5     1.27475950732993         1.2747204686232074       -1.2745520368099574      1.2745910755166814       -1.2745910755166814      1.2745520368099574       -1.2747204686232074      -1.27475950732993
1.3225145120158515        9.802585501868504E-6     0.44074728302900734      2.1068680707126038E-5    1.3223457289808542       1.3223065186388476       -1.3221379691931892      1.3221771795351964       -1.3221771795351964      1.3221379691931892       -1.3223065186388476      -1.3223457289808542
1.323998378362926         9.803923177522235E-6     0.44124177914992696      2.1069139103578778E-5    1.3238292218525503       1.3237900061598413       -1.3236214530470112      1.3236606687397212       -1.3236606687397212      1.3236214530470112       -1.3237900061598413      -1.3238292218525503
1.3267419131953675        9.806364200202122E-6     0.44215605688144727      2.1069528429157065E-5    1.326572061486459        1.326532836029659        -1.3263642798022246      1.326403505259025        -1.326403505259025       1.3263642798022246       -1.326532836029659       -1.326572061486459
1.334322211199678         9.813017363727436E-6     0.4446821766359993       2.107039649227628E-5     1.3341504375286948       1.3341111854592402       -1.333942622287301       1.333981874356756        -1.333981874356756       1.333942622287301        -1.3341111854592402      -1.3341504375286948
1.3602680602081483        9.835789816257674E-6     0.45332858099789214      2.107336769929021E-5     1.3600897080441066       1.360050364884842        -1.3598817779432466      1.3599211211025117       -1.3599211211025117      1.3598817779432466       -1.360050364884842       -1.3600897080441066
1.3751322102609413        9.849933119273832E-6     0.45828202660706197      2.1075110630318014E-5    1.3749500801299461       1.3749106803974696       -1.3747420795124259      1.374781479244903        -1.374781479244903       1.3747420795124259       -1.3749106803974696      -1.3749500801299461
1.3811131933736358        9.854875541050363E-6     0.46027517584333544      2.1075739150977144E-5    1.3809295402376922       1.380890120735529        -1.3807215148223198      1.380760934324484        -1.380760934324484       1.3807215148223198       -1.380890120735529       -1.3809295402376922
1.38377349445817          9.857073897031558E-6     0.46116171522573934      2.1076018712738037E-5    1.383589163899863        1.383549735604276        -1.3833811274545726      1.3834205557501609       -1.3834205557501609      1.3833811274545726       -1.383549735604276       -1.383589163899863
1.4407290675298592        9.902069029973579E-6     0.48014205288223893      2.1083000285208355E-5    1.4405302947859175       1.4404906865097986       -1.4403220225075155      1.4403616307836353       -1.4403616307836353      1.4403220225075155       -1.4404906865097986      -1.4405302947859173
1.5406303244909907        9.980185990410501E-6     0.5134339608644298       2.109422928866459E-5     1.5404062198824253       1.5403662991384643       -1.5401975453041539      1.540237466048115        -1.540237466048115       1.5401975453041539       -1.5403662991384643      -1.540406219882425
1.5788434425661144        9.99906217544937E-6      0.5261684079146224       2.1104389818652272E-5    1.5786096394274929       1.5785696431787917       -1.5784008080602412      1.578440804308943        -1.578440804308943       1.5784008080602412       -1.5785696431787917      -1.5786096394274927
1.7054093131687564        1.0055661893187962E-5    0.5683462813452391       2.114488802596945E-5     1.7051435349116089       1.7051033122640364       -1.7049341531598277      1.7049743758074003       -1.7049743758074003      1.7049341531598277       -1.7051033122640364      -1.7051435349116086
1.7135181921646367        1.0060359354193641E-5    0.5710485524232531       2.114717574783903E-5     1.7132503666914594       1.7132101252540433       -1.7130409478480595      1.7130811892854765       -1.7130811892854765      1.7130409478480595       -1.7132101252540433      -1.7132503666914594
1.7202232997413345        1.0064243612589036E-5    0.5732830188998999       2.1149067429926047E-5    1.7199537814566452       1.719913524482195        -1.719744331942755       1.7197845889172054       -1.7197845889172054      1.719744331942755        -1.719913524482195       -1.7199537814566452
1.7313695206533466        1.0067490819563266E-5    0.5769974783558595       2.115392289839084E-5     1.7310971857408115       1.7310569157775337       -1.730887684394346       1.7309279543576244       -1.7309279543576244      1.730887684394346        -1.7310569157775337      -1.7310971857408115
1.7363983504518417        1.0068955858820493E-5    0.5786733274660542       2.115611353544454E-5     1.7361247447640225       1.7360844689405877       -1.7359152200323034      1.7359554958557388       -1.7359554958557388      1.7359152200323034       -1.7360844689405877      -1.7361247447640225
1.7538075599749474        1.0076848168261024E-5    0.5844749045615903       2.1160497289732932E-5    1.7535295093702672       1.7534892019775945       -1.7533199179992758      1.753360225391949        -1.753360225391949       1.7533199179992758       -1.7534892019775945      -1.7535295093702672
1.7776492521689455        1.0076183179656261E-5    0.5924201268314702       2.1177366462170333E-5    1.7773652423266193       1.7773249375939009       -1.777155518662203       1.7771958233949214       -1.7771958233949214      1.777155518662203        -1.7773249375939009      -1.7773652423266193
1.8576127406959222        1.0073952851032218E-5    0.6190678867577462       2.12339445718945E-5      1.8573087439572284       1.8572684481458244       -1.857098576589249       1.8571388724006523       -1.8571388724006523      1.857098576589249        -1.8572684481458244      -1.8573087439572284
1.8655109622214208        1.0066013068048144E-5    0.6216999466490567       2.1236251830526916E-5    1.8652049169806286       1.8651646529283563       -1.864994762913712       1.8650350269659832       -1.8650350269659832      1.864994762913712        -1.8651646529283563      -1.8652049169806286
1.886781574727844         1.0044630526843262E-5    0.6287883178552859       2.124246548310723E-5     1.886470012688844        1.8864298341667367       -1.8862598944428717      1.8863000729649784       -1.8863000729649784      1.8862598944428717       -1.8864298341667367      -1.886470012688844
1.9171588123464889        1.0014025555159798E-5    0.6389115032615249       2.1277388408452204E-5    1.9168396473893194       1.916799591287099        -1.9166293721798313      1.916669428282051        -1.916669428282051       1.9166293721798313       -1.916799591287099       -1.9168396473893194
1.9665952632468462        9.958822395081087E-6     0.655386189316855        2.1321926849532597E-5    1.9662637733027541       1.966223938013174        -1.9660533625983774      1.9660931978879572       -1.9660931978879572      1.9660533625983774       -1.966223938013174       -1.9662637733027541
1.9778243684976462        9.946283426699688E-6     0.6591282860960529       2.1332043409955093E-5    1.9774900790286525       1.977450293894946        -1.977279637547666       1.9773194226813722       -1.9773194226813722      1.977279637547666        -1.977450293894946       -1.9774900790286525
1.9889846456065372        9.94159421512954E-6      0.6628474332688402       2.1343375874342558E-5    1.9886475564984492       1.988607790121589        -1.9884370431145937      1.9884768094914538       -1.9884768094914538      1.9884370431145937       -1.988607790121589       -1.9886475564984492
1.9961635260793054        9.919535037102348E-6     0.6652398440015354       2.1379685289895766E-5    1.9958248898158408       1.9957852116756931       -1.995614174193373       1.9956538523335212       -1.9956538523335212      1.995614174193373        -1.9957852116756931      -1.9958248898158408
2.0277803163944528        9.862624974329851E-6     0.675776148645556        2.1402500927504144E-5    2.027433781190328        2.0273943306904307       -2.02722311068301        2.0272625611829067       -2.0272625611829067      2.02722311068301         -2.0273943306904307      -2.027433781190328
2.027885949424738         9.86267283299917E-6      0.675811351203707        2.1402292083208893E-5    2.027539388125121        2.0274999374337885       -2.0273287190971225      2.027368169788454        -2.027368169788454       2.0273287190971225       -2.0274999374337885      -2.027539388125121
2.0292309725767237        9.863282216428609E-6     0.6762595846359435       2.1399632873191966E-5    2.0288840790037566       2.0288446258748913       -2.0286734288119055      2.0287128819407703       -2.0287128819407703      2.0286734288119055       -2.0288446258748913      -2.0288840790037566
2.1400061462344935        9.969911417441056E-6     0.7131758027071686       2.1246684598474636E-5    2.1396323346827364       2.139592455037066        -2.1394224815602776      2.139462361205947        -2.139462361205947       2.1394224815602776       -2.139592455037066       -2.1396323346827364
2.1577111169689163        9.836365714448788E-6     0.7190760670819243       2.1323041433111024E-5    2.1573331661429354       2.157293820680078        -2.157123236348612       2.1571625818114697       -2.1571625818114697      2.157123236348612        -2.157293820680078       -2.1573331661429354
2.1851868775963013        9.60317125453373E-6      0.7282323334654722       2.1447990640327107E-5    2.184801998701488        2.18476358601647         -2.1845920020913465      2.1846304147763647       -2.1846304147763647      2.1845920020913465       -2.18476358601647        -2.184801998701488
2.2085794061732438        9.050581085415384E-6     0.7360311048629683       2.190357195687269E-5     2.2081990300389043       2.2081628277145624       -2.207987599138907       2.2080238014632485       -2.2080238014632485      2.207987599138907        -2.2081628277145624      -2.2081990300389043
2.3200030731172467        6.404075239668664E-6     0.7731793459757157       2.4077202353935644E-5    2.3196471548870434       2.3196215385860848       -2.319428920967252       2.3194545372682116       -2.3194545372682116      2.319428920967252        -2.3196215385860848      -2.3196471548870434
2.342593438798151         5.675374454781109E-6     0.7807109167992461       2.4646507611689357E-5    2.3422426871770963       2.342219985679277        -2.3420228136183825      2.3420455151162014       -2.3420455151162014      2.3420228136183825       -2.342219985679277       -2.3422426871770963
2.5                       -1.784496503296293E-6    0.833211651443111        3.096309609502499E-5     2.499755237720709        2.499762375706722        -2.4995146709379608      2.4995075329519474       -2.4995075329519474      2.4995146709379608       -2.499762375706722       -2.499755237720709
2.5772695686746427        -1.03269727607589E-4     0.7838950396842164       -7.317313280716408E-5    2.3511858870662063       2.3515989659766374       -2.352184351039093       2.351771272128664        -2.351771272128664       2.352184351039093        -2.3515989659766374      -2.3511858870662063
2.593161208695479         -2.465166020206109E-5    0.7746801108677938       -1.2240148496279394E-4   2.323501423343127        2.3236000299839357       -2.3245792418636366      2.3244806352228293       -2.3244806352228293      2.3245792418636366       -2.3236000299839357      -2.323501423343127
2.6233133832579365        1.2451517777478096E-4    0.7571960663079451       -2.158054297836194E-4    2.270974007560251        2.270475946849152        -2.27220239028742        2.2727004509985202       -2.2727004509985202      2.27220239028742         -2.270475946849152       -2.270974007560251
2.645942429728081         3.549389528079513E-5     0.7439191109903607       -1.2905626571804967E-4   2.2313120956987724       2.2311701201176493       -2.232202570243393       2.232344545824517        -2.232344545824517       2.232202570243393        -2.2311701201176493      -2.2313120956987724
2.6503150343565167        2.1339075865791724E-5    0.7412961080981239       -8.422107049200513E-5    2.2235941181641365       2.223508761860673        -2.2241825304246086      2.2242678867280725       -2.2242678867280725      2.2241825304246086       -2.223508761860673       -2.2235941181641365
2.6545391373492855        7.664979958701371E-6     0.7387621871725765       -4.0908560345517906E-5   2.216138257236266        2.216107597316431        -2.2164348657991946      2.2164655257190304       -2.2164655257190304      2.2164348657991946       -2.216107597316431       -2.216138257236266
2.6642120107336575        3.690961605293228E-5     0.7335244128560101       4.1345758462183716E-5    2.2008124408339858       2.2006648023697744       -2.200334036302076       2.200481674766289        -2.200481674766289       2.200334036302076        -2.2006648023697744      -2.2008124408339858
2.70694141053224          -1.0358107659165202E-4   0.7108273895759447       -3.8640719359434375E-6   2.1322595502869084       2.1326738745932747       -2.1327047871687617      2.1322904628623958       -2.1322904628623958      2.1327047871687617       -2.1326738745932747      -2.1322595502869084
2.7089289341740894        -1.0043450542399101E-4   0.7097721070967553       -1.136913686390498E-5    2.129069975731963        2.1294717137536585       -2.12956266684857        2.129160928826874        -2.129160928826874       2.12956266684857         -2.1294717137536585      -2.129069975731963
2.7318087060239282        -6.421212853776725E-5    0.6976240139357002       -9.776517747160565E-5    2.0923525568401393       2.09260940535429         -2.093391526774063       2.0931346782599114       -2.0931346782599114      2.093391526774063        -2.09260940535429        -2.0923525568401393
2.745739773440052         5.6078276488072984E-5    0.6905959741792896       -1.4831587166713343E-5   2.0718407527421787       2.0716164396362258       -2.07173509233356        2.071959405439512        -2.071959405439512       2.07173509233356         -2.0716164396362258      -2.0718407527421787
2.746626766515872         6.373718396145329E-5     0.6901484978722474       -9.55119348574002E-6     2.0705347632107225       2.070279814474876        -2.0703562240227624      2.0706111727586074       -2.0706111727586074      2.0703562240227624       -2.070279814474876       -2.0705347632107225
2.7627237918452465        1.9135656958761736E-4    0.6819234422746094       1.2442561799141396E-4    2.0466507424349696       2.0458853161566184       -2.044889911212687       2.0456553374910373       -2.0456553374910373      2.044889911212687        -2.0458853161566184      -2.0466507424349696
2.7746756180637218        5.420533870573066E-5     0.6761933805326439       1.2606789808389685E-4    2.029192823867679        2.028976002512856        -2.0279674593281847      2.028184280683007        -2.028184280683007       2.0279674593281847       -2.028976002512856       -2.029192823867679
2.785480539644109         1.2969124184616275E-4    0.6711250235578065       1.7713006142421484E-4    2.014342973402809        2.013824208435424        -2.0124071679440307      2.0129259329114144       -2.0129259329114144      2.0124071679440307       -2.013824208435424       -2.014342973402809
2.793916008744259         1.886235532655999E-4     0.6671681259226239       2.169946081346586E-4     2.002749603306942        2.0019951090938792       -2.000259152228802       2.0010136464418635       -2.0010136464418635      2.000259152228802        -2.0019951090938792      -2.002749603306942
2.815268550214296         1.0738605617360053E-4    0.656754293660949        9.997122563717281E-5     1.970877537997743        1.9704479937730488       -1.969648223967951       1.9700777681926447       -1.9700777681926447      1.969648223967951        -1.9704479937730488      -1.9708775379977426
2.82372649168256          7.739001509199958E-5     0.6529257825046879       1.176605792969803E-4     1.959402769861436        1.9590932098010678       -1.958151925166692       1.9584614852270592       -1.9584614852270592      1.958151925166692        -1.9590932098010678      -1.9594027698614358
2.8501548534909844        -8.514549430149151E-5    0.6409054504990507       -3.392439978208055E-5    1.9224103629094214       1.922750944886627        -1.9230223400848832      1.9226817581076767       -1.9226817581076767      1.9230223400848832       -1.922750944886627       -1.9224103629094207
2.8582307561772136        -2.2461986215395848E-5   0.6372799447384778       8.340541269676559E-6     1.9118282724080817       1.9119181203529432       -1.9118513960227852      1.911761548077923        -1.911761548077923       1.9118513960227852       -1.9119181203529432      -1.9118282724080813
2.866366875780967         4.0688913292226446E-5    0.6336274058659599       5.092062535477825E-5     1.901167277925884        1.9010045222727148       -1.900597157269876       1.9007599129230446       -1.9007599129230446      1.900597157269876        -1.9010045222727148      -1.9011672779258835
2.8877725501344873        6.880531842115356E-5     0.624475489178534        1.2747263649285213E-4    1.874073968718416        1.8737987474447313       -1.872778966352788       1.8730541876264721       -1.8730541876264721      1.872778966352788        -1.8737987474447313      -1.8740739687184154
2.898383873967465         8.274331798682316E-5     0.6199386570255803       1.6542136760200273E-4    1.860643143183123        1.8603121699111755       -1.8589887989703593      1.859319772242306        -1.859319772242306       1.8589887989703593       -1.8603121699111755      -1.8606431431831225
2.903833806295017         7.571266375060015E-5     0.6175967097052595       1.4225428359415724E-4    1.853510571577657        1.853207720922654        -1.852069686653901       1.8523725373089026       -1.8523725373089026      1.852069686653901        -1.853207720922654       -1.853510571577656
2.905371220036088         7.100965434873206E-5     0.6169249673325002       1.320284175989222E-4     1.8514450349765947       1.8511609963591995       -1.8501047690184083      1.8503888076358024       -1.8503888076358024      1.8501047690184083       -1.8511609963591995      -1.851445034976594
2.917465201347639         3.401368748907782E-5     0.6116407426080178       5.158720067923914E-5     1.8351966040017493       1.8350605492517928       -1.8346478516463591      1.8347839063963143       -1.8347839063963143      1.8346478516463591       -1.8350605492517928      -1.8351966040017489
2.9192789160045027        1.677009833492201E-5     0.6108870579145822       3.6517847637871585E-5    1.8328407853309687       1.8327737049376291       -1.8324815621565262      1.832548642549865        -1.832548642549865       1.8324815621565262       -1.8327737049376291      -1.8328407853309683
2.9233635356228147        -2.206374042942915E-5    0.6091897042138894       2.5805494883995167E-6    1.8275353073587635       1.8276235623204806       -1.8276029179245739      1.8275146629628551       -1.8275146629628551      1.8276029179245739       -1.8276235623204806      -1.8275353073587628
2.9299066371139615        -4.650541791161809E-5    0.606422723209944        -3.889850778924001E-5    1.819019564762852        1.819205586434498        -1.8195167744968124      1.819330752825165        -1.819330752825165       1.8195167744968124       -1.819205586434498       -1.8190195647628515
2.933791524876683         -5.2573902564538935E-5   0.6048333486938544       -2.6661547951065687E-5   1.8142882520846304       1.814498547694888        -1.8147118400784972      1.814501544468238        -1.814501544468238       1.8147118400784972       -1.814498547694888       -1.81428825208463
2.955214421965431         -8.603806681959646E-5    0.5960688724018001       4.081817020396006E-5     1.7881978137525771       1.7885419660198552       -1.7882154206582241      1.7878712683909443       -1.7878712683909443      1.7882154206582241       -1.7885419660198552      -1.7881978137525771