% Model:              Sphere_potential.mph
% Version:            COMSOL 6.2.0.278
% Date:               Oct 11 2024, 12:27
% Dimension:          1
% Nodes:              745
% Expressions:        11
% Description:        Line graph
% Arc length (m)          Magnetic scalar potential Magnetic scalar potential Magnetic scalar potential Magnetic scalar potential Magnetic scalar potential Magnetic scalar potential Magnetic scalar potential Magnetic scalar potential Magnetic scalar potential Magnetic scalar potential Magnetic scalar potential
0                         8.645312016609865E-6     2.2163235898258783E-5    2.0976183541585383E-5    1.6768506589417802E-4    1.3310381782823501E-4    3.4705650505336555E-5    -1.2440243889882963E-7   1.24402438890156E-7      -3.4705650505340024E-5   -1.3310381782823501E-4   -1.6768506589416587E-4
0.04219632906209079       0.008370321837458543     -0.006249059613823828    0.009427952541548624     0.035705274999640144     0.0022239876498063964    0.07319963268258392      -0.03971834533274972     0.03971834533274971      -0.07319963268258393     -0.0022239876498063964   -0.03570527499964014
0.1362906065700971        0.02701615787350725      -0.020233363658383068    0.030404720104310695     0.11495110518910842      0.006886473695079779     0.23635128713940773      -0.12828665564537858     0.12828665564537856      -0.23635128713940776     -0.006886473695079779    -0.11495110518910842
0.17307000268457856       0.03430440756963947      -0.025699522403227308    0.03860407997852393      0.14592656784369318      0.008708937565135633     0.3001237022630579       -0.16290607198449986     0.16290607198449986      -0.30012370226305796     -0.008708937565135633    -0.14592656784369318
0.21313920666537894       0.04224456944926569      -0.031654613246513294    0.04753684802872775      0.17967269127390303      0.010694413476840638     0.36960037075298363      -0.20062209295592073     0.2006220929559207       -0.3696003707529837      -0.010694413476840638    -0.17967269127390303
0.22868633284143544       0.04532540712203967      -0.03396522859604059     0.05100282340151045      0.192766422062           0.011464793573841598     0.3965577936382443       -0.21525616515008555     0.2152561651500855       -0.3965577936382444      -0.011464793573841598    -0.192766422062
0.24153545448304692       0.047871603874973315     -0.03587486763961903     0.05386732297680931      0.2035878967383274       0.012101481238434374     0.4188371025760423       -0.22735068707614897     0.22735068707614892      -0.41883710257604234     -0.012101481238434374    -0.2035878967383274
0.2831208351003962        0.056112212238255944     -0.042055292718023635    0.06313809798569894      0.23861093826523727      0.014162089312213702     0.49094269457337975      -0.266493845620356       0.26649384562035594      -0.4909426945733798      -0.014162089312213702    -0.23861093826523727
0.3623185172580675        0.07180611813901297      -0.05382566519340406     0.08079391441397939      0.30531089835373154      0.018086425797679953     0.6282648895141564       -0.3410404169581047      0.3410404169581047       -0.6282648895141565      -0.018086425797679953    -0.30531089835373154
0.3984118875547623        0.07895842291446309      -0.05918986794953368     0.08884033574086886      0.33570858494380057      0.0198748932859486       0.6908477926410033       -0.3750141009831511      0.375014100983151        -0.6908477926410033      -0.0198748932859486      -0.33570858494380057
0.4601739194080362        0.09119725823856475      -0.06836895332386321     0.10260916085169225      0.3877242999123089       0.022935266958050204     0.7979380198554884       -0.4331489869012304      0.43314898690123044      -0.7979380198554884      -0.022935266958050204    -0.38772429991230883
0.5282327400981727        0.10468387248658664      -0.07848386869897706     0.11778175105334876      0.4450431430896371       0.026307653143290796     0.9159463552834991       -0.4972108653371547      0.49721086533715475      -0.9159463552834991      -0.026307653143290796    -0.445043143089637
0.5653469760867802        0.11203847232661719      -0.08399979333504742     0.1260557571493555       0.4763005932455141       0.028146703939045378     0.9802993532557986       -0.5321454639493318      0.5321454639493318       -0.9802993532557986      -0.028146703939045378    -0.476300593245514
0.5684193848147985        0.11264730436916436      -0.08445641541864542     0.12674069997750168      0.47888816239239923      0.02829894491574186      0.9856266549042718       -0.5350374374276162      0.5350374374276162       -0.9856266549042718      -0.02829894491574186     -0.47888816239239906
0.575632954189889         0.11407675356211891      -0.08552849773900689     0.12834884623868958      0.4849633988619755       0.028656384613499827     0.998134385296017        -0.5418273710475431      0.5418273710475431       -0.998134385296017       -0.028656384613499827    -0.48496339886197537
0.5867085795673683        0.11627151204098993      -0.08717455955502874     0.13081797397436512      0.49429124131435415      0.029205193150394472     1.017338598644527        -0.5522525504805688      0.5522525504805688       -1.017338598644527       -0.029205193150394472    -0.49429124131435404
0.6803746704144384        0.13483249137302095      -0.10109523305616938     0.15169928199338192      0.5731764115510614       0.033846446058977624     1.1797478098880791       -0.6404178443959955      0.6404178443959955       -1.1797478098880791      -0.033846446058977624    -0.5731764115510614
0.6994001159169358        0.13860259462278463      -0.10392279957487069     0.1559406907004674       0.5891995533228268       0.03478917483168822      1.2127363507720526       -0.6583259722809136      0.6583259722809136       -1.2127363507720526      -0.03478917483168822     -0.5891995533228268
0.7187932330236901        0.14244555608287898      -0.10680500954031479     0.16026406571648577      0.6055323464107566       0.03575012207924065      1.2463624036526468       -0.6765801793211303      0.6765801793211303       -1.2463624036526468      -0.03575012207924065     -0.6055323464107566
0.7796753959311498        0.15451003282294073      -0.11585332787369196     0.1738367360570427       0.6568070262529762       0.03876689496121335      1.35192699349513         -0.7338868622033659      0.7338868622033659       -1.35192699349513        -0.03876689496121335     -0.6568070262529762
0.8010129334953937        0.1587383025258206       -0.11902451596153096     0.17859358645286322      0.674777402978501        0.039824192875218815     1.3889244987476888       -0.7539712886444052      0.7539712886444052       -1.3889244987476888      -0.039824192875218815    -0.674777402978501
0.8281673751685993        0.16411925628769394      -0.12306021322541244     0.1846472192224629       0.697646749789002        0.041169724638226546     1.4360080291414787       -0.7795310039907017      0.7795310039907017       -1.4360080291414787      -0.041169724638226546    -0.697646749789002
0.912486742030226         0.1808280707555194       -0.1355917745249836      0.20344482404566266      0.7686601141187384       0.045347831096661476     1.5822107612686422       -0.8588984782465625      0.8588984782465625       -1.5822107612686422      -0.045347831096661476    -0.7686601141187384
0.9272053490230463        0.1837447253690485       -0.13777925760916968     0.20672609361808236      0.781056052382917        0.0460771509067238       1.6077315980379374       -0.8727526965617411      0.8727526965617411       -1.6077315980379374      -0.0460771509067238      -0.7810560523829169
0.948913977131322         0.18804652998946836      -0.1410055979314456      0.21156567191390055      0.7993389538402016       0.04715283388232914      1.6453725414288776       -0.8931864214710018      0.8931864214710018       -1.6453725414288776      -0.04715283388232914     -0.7993389538402015
0.9643584924772669        0.19110703134291016      -0.14330096485067237     0.21500877060524268      0.8123462505547734       0.04791812518313398      1.67215203965881         -0.907723914287167       0.907723914287167        -1.67215203965881        -0.04791812518313398     -0.8123462505547734
0.9848583888877518        0.19516931230831294      -0.1463476635015663      0.21957888270799114      0.829611164943891        0.048933915710640624     1.7076971459532913       -0.9270198967200373      0.9270198967200372       -1.7076971459532913      -0.048933915710640624    -0.829611164943891
1.0452603737615345        0.20713862971309835      -0.15532461651542        0.23304449568062624      0.8804813926024414       0.051926873750049424     1.8124290916949644       -0.983874572842568       0.9838745728425679       -1.8124290916949644      -0.051926873750049424    -0.8804813926024413
1.0479494718801696        0.20767150419785865      -0.15572427090268498     0.23364398521456187      0.8827461365459095       0.05206011975447639      1.8170917619620226       -0.9864057451705849      0.9864057451705848       -1.8170917619620226      -0.05206011975447639     -0.8827461365459095
1.0522927146283245        0.20853216570573496      -0.15636976464916755     0.23461223867947528      0.8864039921818682       0.05227532935892975      1.8246225800768765       -0.9904939172539337      0.9904939172539334       -1.8246225800768765      -0.05227532935892975     -0.886403992181868
1.0747944638266196        0.2129911351653334       -0.15971397841090346     0.23962862884951514      0.9053548504960167       0.05339030983468475      1.863638720961441        -1.011674180300104       1.011674180300104        -1.863638720961441       -0.05339030983468475     -0.9053548504960167
1.0952411123649402        0.21704286379229815      -0.16275276276587305     0.24418686855941563      0.9225749135246395       0.054403458355448506     1.8990914901198812       -1.0309200349506853      1.0309200349506853       -1.8990914901198812      -0.054403458355448506    -0.9225749135246395
1.1105111908433347        0.22006879808929786      -0.1650222045613697      0.2475910781924667       0.9354352952643532       0.05516010290716348      1.925568522632575        -1.0452933302753802      1.0452933302753802       -1.925568522632575       -0.05516010290716348     -0.9354352952643532
1.1291595190417754        0.22376416782053993      -0.16779372119751862     0.2517484109464513       0.9511408158343289       0.05608414455217078      1.957903143019444        -1.062846471737281       1.062846471737281        -1.957903143019444       -0.05608414455217078     -0.9511408158343289
1.158021431794746         0.22948347078636805      -0.17208318191993482     0.2581826914864411       0.975448161758696        0.05751427861322525      2.0079472532783083       -1.0900133701328327      1.0900133701328325       -2.0079472532783083      -0.05751427861322525     -0.9754481617586959
1.165937021539027         0.23105203168649624      -0.17325959815676156     0.2599473394805906       0.9821146268250702       0.05790650007908668      2.0216722157656433       -1.0974640890196548      1.0974640890196543       -2.0216722157656433      -0.05790650007908668     -0.9821146268250702
1.1774923291988282        0.23334184197296498      -0.17497694904222377     0.26252340103173133      0.9918464409461839       0.058479073054325446     2.0417081351995297       -1.1083407673076666      1.1083407673076664       -2.0417081351995297      -0.05847907305432543     -0.9918464409461839
1.2918698226687422        0.2560069902146717       -0.19197574262440045     0.2880219400510521       1.0881745127603502       0.06414655190166434      2.240028968506753        -1.216001007648067       1.2160010076480667       -2.240028968506753       -0.06414655190166431     -1.0881745127603502
1.341112107685504         0.26576488163442347      -0.19929413119729034     0.2989996745138905       1.1296460677325368       0.06658654119484438      2.3254108549162775       -1.262351328378587       1.2623513283785868       -2.3254108549162775      -0.06658654119484433     -1.1296460677325368
1.3768014202283279        0.2728371101512536       -0.20459828020348692     0.3069559997593073       1.1597033787292743       0.06835493812426145      2.3872930599501943       -1.295944619345184       1.295944619345184        -2.3872930599501943      -0.06835493812426142     -1.1597033787292743
1.3948873246259632        0.27642103037051086      -0.2072862090259257      0.31098794454872947      1.174935211858161        0.06925109037611925      2.4186524660137136       -1.3129683445316744      1.3129683445316744       -2.4186524660137136      -0.06925109037611923     -1.174935211858161
1.518213415155401         0.30085942880688044      -0.22561492852884832     0.33848137712575854      1.2787995805302483       0.07536186530272786      2.632489151703335        -1.4290514364758193      1.4290514364758191       -2.632489151703335       -0.07536186530272783     -1.2787995805302481
1.5215450686861258        0.3015196314163212       -0.2261100782499655      0.33922411116799944      1.281605472754742        0.07552694708945841      2.638265942254532        -1.4321874165892532      1.432187416589253        -2.638265942254532       -0.07552694708945838     -1.2816054727547417
1.524113519660559         0.30202859731565723      -0.2264918009507102      0.3397967025124912       1.2837686018291472       0.07565421256651929      2.6427194075334053       -1.4346050182707821      1.434605018270782        -2.6427194075334053      -0.07565421256651926     -1.283768601829147
1.5655023390484           0.31023023683168466      -0.23264300591543982     0.3490236242763935       1.318625953022622        0.07770500569588477      2.7144839885152585       -1.4735630411885252      1.4735630411885252       -2.7144839885152585      -0.07770500569588476     -1.3186259530226219
1.570192957642762         0.31115973208182973      -0.23334012371864743     0.3500693130299321       1.3225763451274442       0.07793741680012631      2.722617087439326        -1.4779781591120122      1.4779781591120122       -2.722617087439326       -0.0779374168001263      -1.322576345127444
1.6271415940992981        0.32244470178084883      -0.24180380631870058     0.3627649827311224       1.3705379155300845       0.08075910840669022      2.821360753442288        -1.5315819463188949      1.5315819463188944       -2.821360753442288       -0.0807591084066902      -1.3705379155300843
1.6322390966309142        0.32345482556503324      -0.242561395522463       0.3639013798426501       1.3748309839332769       0.08101168167314485      2.830199357068055        -1.536380054807924       1.5363800548079236       -2.830199357068055       -0.08101168167314483     -1.3748309839332766
1.6385502768377909        0.3247054523560356       -0.2434993611160208      0.36530834470690343      1.3801462001916218       0.08132439076748041      2.8411423668877465       -1.5423205574636063      1.5423205574636059       -2.8411423668877465      -0.08132439076748038     -1.3801462001916214
1.6752471712572923        0.33197731770324934      -0.2489532434889519      0.3734892748366549       1.4110520042862627       0.08314273347326577      2.9047714652199756       -1.5768621944069774      1.576862194406977        -2.9047714652199756      -0.08314273347326577     -1.4110520042862622
1.7039731370720996        0.3376696700807708       -0.25322249315106565     0.37989319084004813      1.435244624068537        0.08456594374545442      2.954579582974932        -1.603900902651848       1.6039009026518476       -2.954579582974932       -0.08456594374545442     -1.4352446240685364
1.711303361813698         0.3391222262896727       -0.25431190959991584     0.38152733403112693      1.4414180599041053       0.0849291547454152       2.9672895175036027       -1.6108006123449101      1.6108006123449097       -2.9672895175036027      -0.0849291547454152      -1.4414180599041049
1.7386513212025938        0.3445415098331287       -0.25837634169922774     0.387624028597581        1.4644501089588977       0.08628406962638355      3.0147081591542664       -1.6365421198217498      1.6365421198217494       -3.0147081591542664      -0.08628406962638355     -1.4644501089588973
1.8146887899528257        0.35960911806766427      -0.2696769933899036      0.4045751548583452       1.5284878753989983       0.09005140312834159      3.1465498357384227       -1.7081133634677625      1.7081133634677623       -3.1465498357384227      -0.09005140312834159     -1.528487875398998
1.8433485868187458        0.3652883657833042       -0.27393641810469543     0.4109643400624238       1.552624837502217        0.09147137436900071      3.1962433461303927       -1.7350898829971728      1.7350898829971728       -3.1962433461303927      -0.09147137436900071     -1.5526248375022167
1.8740532223728068        0.37137279309686505      -0.2784997469312579      0.4178093631701941       1.5784837980807325       0.09299262569327264      3.2494822796682827       -1.7639911072808194      1.7639911072808194       -3.2494822796682827      -0.09299262569327264     -1.578483798080732
1.911857516903296         0.3788640880775927       -0.28411822843692824     0.42623712220281773      1.610321979655671        0.09486562734530059      3.315031350277243        -1.7995749979668694      1.7995749979668694       -3.315031350277243       -0.09486562734530059     -1.6103219796556707
1.9605919053666567        0.38852127750644116      -0.2913611219158274      0.4371015216103718       1.6513652757068866       0.09728016568112252      3.399532007201855        -1.8454468971760862      1.8454468971760862       -3.399532007201855       -0.09728016568112252     -1.6513652757068866
2.024421105749064         0.4011696797554559       -0.3008474465243437      0.4513310683954518       1.7051212935196878       0.10044257449786378      3.510205972665753        -1.905527253643926       1.905527253643926        -3.510205972665753       -0.10044257449786378     -1.7051212935196878
2.044245032739158         0.4050979921000007       -0.303793686366184       0.4557504486961151       1.72181671988591         0.10142475148590681      3.5445788380830163       -1.924186869683011       1.924186869683011        -3.5445788380830163      -0.10142475148590681     -1.72181671988591
2.071618373938832         0.410522273218282        -0.30786192292597236     0.46185281255103533      1.7448700278627884       0.1027809349896598       3.592041565418625        -1.9499524725454944      1.9499524725454944       -3.592041565418625       -0.1027809349896598      -1.7448700278627884
2.104663495726702         0.41707046014637483      -0.31277312481643677     0.4692194796217931       1.7726994643306122       0.10441762374511211      3.6493382132292354       -1.9810563726437334      1.9810563726437334       -3.6493382132292354      -0.10441762374511211     -1.7726994643306122
2.121587613770156         0.42042394653970183      -0.315288514286188       0.4729924219276161       1.7869520379313046       0.10525625177249615      3.6786831236484345       -1.9969873374896243      1.9969873374896243       -3.6786831236484345      -0.10525625177249615     -1.7869520379313046
2.173987545172951         0.43080723733236864      -0.3230775301557315      0.48467684496843083      1.8310892640712668       0.10786031474179117      3.7695544450056575       -2.04632549567618        2.04632549567618         -3.7695544450056575      -0.10786031474179117     -1.8310892640712668
2.219195707860973         0.4397652791641678       -0.32979704432805096     0.4947560830848972       1.869163757683772        0.11010264102709977      3.84794602365208         -2.0888849069954056      2.0888849069954056       -3.84794602365208        -0.11010264102709977     -1.869163757683772
2.238648907141671         0.4436196252409526       -0.3326873460776017      0.4990923270771618       1.8855465205577477       0.11106801959393614      3.881670597023359        -2.1071920960595456      2.1071920960595456       -3.881670597023359       -0.11106801959393614     -1.8855465205577477
2.240120827869578         0.4439112632281589       -0.3329060399280929      0.49942042773152606      1.8867861175981437       0.11114106468550691      3.884222357166702        -2.108577304254064       2.108577304254064        -3.884222357166702       -0.11114106468550691     -1.8867861175981437
2.267731365284944         0.4493809222674445       -0.3370065800734662      0.5055743763946792       1.9100396098932084       0.11251592082342883      3.932079090334006        -2.134555401264225       2.134555401264225        -3.932079090334006       -0.11251592082342882     -1.9100396098932084
2.2854396919683104        0.4528883485322837       -0.33963629054863365     0.5095201503120125       1.9249484266667176       0.11339503253758114      3.9627661699585195       -2.151212775829382       2.151212775829382        -3.9627661699585195      -0.11339503253758113     -1.9249484266667176
2.3072006602971236        0.4572007905043475       -0.34287077173942415     0.5143692601375388       1.9432663063405795       0.11446314432318805      4.000490936777124        -2.1716877747597323      2.1716877747597323       -4.000490936777124       -0.11446314432318803     -1.9432663063405795
2.332328110674272         0.4621799438401911       -0.3466054148448685      0.5199764453907268       1.9644494247086857       0.1157296493479196       4.044081913777896        -2.19536213841713        2.19536213841713         -4.044081913777896       -0.11572964934791959     -1.9644494247086857
2.3445115031443784        0.464594155324003        -0.34841620830009257     0.5226951668513933       1.974720353153303        0.11634373185728941      4.065217602953858        -2.2068409816578445      2.2068409816578445       -4.065217602953858       -0.11634373185728938     -1.974720353153303
2.3705574040397037        0.46975497686489937      -0.3522884230542123      0.528503941846723        1.9966604519540545       0.1176405444944558       4.110390990279328        -2.231371082819729       2.231371082819729        -4.110390990279328       -0.11764054449445578     -1.9966604519540545
2.3817290955145722        0.47196887317059955      -0.3539494451644865      0.5309952897412722       2.006070569812829        0.1181950771304302       4.129767240799748        -2.2418917481173484      2.2418917481173484       -4.129767240799748       -0.11819507713043018     -2.006070569812829
2.3967867510410032        0.4749528517397769       -0.3561882376351304      0.5343532287317115       2.0187539055010095       0.11894249854190123      4.155883331311792        -2.2560719243526832      2.256071924352683        -4.155883331311792       -0.11894249854190123     -2.0187539055010095
2.4557777740423226        0.486642077638731        -0.36496598379500855     0.5475098948668943       2.0684257833600133       0.12185747280508877      4.258221686130066        -2.3116533755751414      2.311653375575141        -4.258221686130066       -0.12185747280508877     -2.0684257833600133
2.4599079714962113        0.48746048709477163      -0.36558054891010416     0.5484310456828748       2.0719035101907304       0.12206156181164317      4.265386803651357        -2.3155448552722695      2.315544855272269        -4.265386803651357       -0.12206156181164317     -2.0719035101907304
2.4617761652944163        0.4878306288778056       -0.3658583255072198      0.548847629417077        2.0734767989022598       0.12215428339103696      4.268626751945581        -2.3173042364343566      2.3173042364343566       -4.268626751945581       -0.12215428339103696     -2.0734767989022598
2.4630374131421293        0.48808068816122835      -0.36604593904187144     0.5491287818754865       2.0745386866987885       0.12221593405387447      4.270814320950018        -2.318491568305104       2.3184915683051037       -4.270814320950018       -0.12221593405387447     -2.0745386866987885
2.480898710520201         0.4916199693141301       -0.36870098280539804     0.5531123244668997       2.089586288079665        0.12310641082314443      4.301792184912055        -2.3353123076555335      2.335312307655533        -4.301792184912055       -0.12310641082314443     -2.089586288079665
2.499710748408769         0.49534764316319896      -0.3714973521182223      0.5573079073842073       2.10543485950856         0.12404428685576432      4.334418972217896        -2.3530283995650993      2.353028399565099        -4.334418972217896       -0.12404428685576432     -2.10543485950856
2.5129216488499226        0.49032079716260846      -0.36793785777075655     0.5516545058822113       2.0834460445417933       0.12216285589135906      4.291073191166334        -2.329790002515899       2.3297900025158986       -4.291073191166334       -0.12216285589135906     -2.0834460445417933
2.515466874059202         0.48929318840271613      -0.36720917206501935     0.5505005375218686       2.0789610106978493       0.1217882570869841       4.282216043087967        -2.325043289477101       2.325043289477101        -4.282216043087967       -0.1217882570869841      -2.0789610106978493
2.5215322796698985        0.4869938098333444       -0.36543836770674987     0.5480118963544297       2.0697201019641587       0.12174486263078052      4.26235030820466         -2.3143750688712803      2.31437506887128         -4.26235030820466        -0.12174486263078052     -2.0697201019641587
2.5257719591122134        0.4853150750349589       -0.3642071118339375      0.5461517679443852       2.0626158863456467       0.12135558620581079      4.247858557349273        -2.306598257209436       2.306598257209436        -4.247858557349273       -0.12135558620581077     -2.0626158863456467
2.546316453966589         0.47718031888262435      -0.35824073388305977     0.537138020780572        2.028190519238358        0.1194692437078607       4.1776349225367175       -2.268913647006219       2.268913647006219        -4.1776349225367175      -0.11946924370786069     -2.028190519238358
2.5524705393630507        0.4750313889598539       -0.35636275165109965     0.5345536377432991       2.0191890739396054       0.11906351810018986      4.157365583846206        -2.2572400280067875      2.2572400280067875       -4.157365583846206       -0.11906351810018984     -2.0191890739396054
2.55442711272694          0.4743481779257375       -0.3557656832361856      0.5337319827471363       2.0163272371314633       0.11893452542851304      4.1509213365485795       -2.253528624845627       2.253528624845627        -4.1509213365485795      -0.11893452542851302     -2.0163272371314633
2.585556137899856         0.4628053135743383       -0.3475805893085013      0.5212080478676951       1.967701050693954        0.11647979639660053      4.053184586544963        -2.2019633322476078      2.2019633322476078       -4.053184586544963       -0.1164797963966005      -1.967701050693954
2.5877376414965845        0.4619731853575065       -0.3469899746952193      0.5203055180216714       1.9641985187160407       0.11630577728601454      4.046138366887358        -2.1982456254573304      2.1982456254573304       -4.046138366887358       -0.11630577728601453     -1.9641985187160407
2.5906016671959797        0.46101469232892095      -0.3461723254809782      0.5191744652994609       1.9602102694127512       0.11615150009706729      4.037244222298622        -2.193185452982936       2.193185452982936        -4.037244222298622       -0.11615150009706726     -1.9602102694127512
2.6366027957091105        0.4455349286808499       -0.3341333528855882      0.5010824435715237       1.8929995729910298       0.11085985826763053      3.89779969030456         -2.11565997558116        2.11565997558116         -3.89779969030456        -0.11085985826763052     -1.8929995729910298
2.6455843194894992        0.4424544856931921       -0.33187097135911614     0.4976928182319234       1.8800673302367297       0.11024938746396107      3.871293158391427        -2.101475215618658       2.101475215618658        -3.871293158391427       -0.11024938746396103     -1.8800673302367297
2.6610280188371314        0.4371576745370729       -0.32798081408081925     0.49186436908165654      1.8578303831583145       0.10919968501002278      3.82571526764323         -2.0770845694949385      2.0770845694949385       -3.82571526764323        -0.10919968501002274     -1.8578303831583145
2.667175254133433         0.4351189879426286       -0.3263354910091688      0.48954206018404733      1.8493997435939404       0.10892379182342596      3.8074126896489537       -2.066936737878439       2.066936737878439        -3.8074126896489537      -0.10892379182342593     -1.8493997435939404
2.6681268524760187        0.43480339716225097      -0.32608079330645645     0.48918256437960556      1.8480946719235551       0.10888108327455126      3.8045794317622943       -2.06536584311329        2.06536584311329         -3.8045794317622943      -0.10888108327455123     -1.8480946719235551
2.678114503546514         0.4316955131283797       -0.3236794426538133      0.4857750604140274       1.8354529399514294       0.10867088743791056      3.7775295958743094       -2.05074754336079        2.05074754336079         -3.7775295958743094      -0.10867088743791056     -1.8354529399514294
2.7011356985122434        0.4243904144323347       -0.31822496451203064     0.4776392331769405       1.8046628680363401       0.10710121030700123      3.714012655108525        -2.0164509973791844      2.0164509973791844       -3.714012655108525       -0.10710121030700122     -1.8046628680363401
2.7354509443618453        0.4135425063653758       -0.3099983027275029      0.4652355219114667       1.75803219219411         0.10386216673260679      3.6180220085591275       -1.9638519830976235      1.9638519830976235       -3.6180220085591275      -0.10386216673260679     -1.75803219219411