% Model:              Sphere_potential.mph
% Version:            COMSOL 6.2.0.278
% Date:               Oct 11 2024, 12:27
% Dimension:          1
% Nodes:              733
% Expressions:        11
% Description:        Line graph
% Arc length (m)          Magnetic scalar potential Magnetic scalar potential Magnetic scalar potential Magnetic scalar potential Magnetic scalar potential Magnetic scalar potential Magnetic scalar potential Magnetic scalar potential Magnetic scalar potential Magnetic scalar potential Magnetic scalar potential
0                         8.645312016607913E-6     2.2163235898261602E-5    2.0976183541589286E-5    1.676850658941919E-4     1.331038178282555E-4     3.470565050533829E-5     -1.244024389056601E-7    1.2440243889644438E-7    -3.470565050534783E-5    -1.331038178282555E-4    -1.6768506589417628E-4
0.010196587884664356      -0.002011930647948441    -0.001493265544939379    -0.002252185579953506    -0.01751240025052927     -0.00946467765873496     -0.008552806980892273    5.050843890985202E-4     -5.050843890985306E-4    0.008552806980892266     0.00946467765873496      0.017512400250529286
0.06023987158624812       -0.011928605837120618    -0.008930756271373788    -0.013408511803974853    -0.10428352770426239     -0.05656910435577912     -0.05069899007601878     0.0029845667275363898    -0.0029845667275364      0.050698990076018774     0.05656910435577912      0.10428352770426243
0.12981860251372074       -0.025716464166052645    -0.019271628221855287    -0.028919944751307033    -0.22492759200289988     -0.12206173533868842     -0.10929782267176719     0.0064319660075567095    -0.006431966007556723    0.10929782267176719      0.12206173533868842      0.2249275920028999
0.14836973912648252       -0.02939259392651125     -0.022028719730874384    -0.03305561534819681     -0.25709380843843355     -0.1395234327323876      -0.12492149005318624     0.007351114347141349     -0.00735111434714136     0.12492149005318624      0.1395234327323876       0.25709380843843355
0.18180475112492134       -0.036018141085795034    -0.026997868657290515    -0.040509401100232385    -0.3150674925443919      -0.17099492820121093     -0.15308028060064782     0.009007716257467775     -0.009007716257467789    0.15308028060064782      0.17099492820121093      0.3150674925443919
0.2850039432945455        -0.0564682929970282      -0.04233544724289755     -0.06351595916779998     -0.49400676439394964     -0.2681335924058362      -0.2399940809365632      0.014120908948450443     -0.014120908948450448    0.2399940809365632       0.2681335924058362       0.4940067643939497
0.29617594695557503       -0.058682158997064776    -0.0439958429419459      -0.06600657323226145     -0.5133781397490137      -0.2786495037607539      -0.2494030820973371      0.014674446109078055     -0.01467444610907806     0.2494030820973371       0.2786495037607539       0.5133781397490137
0.3400427495104885        -0.06737489001051768     -0.050515376277514956    -0.07578595379112471     -0.5894397240180798      -0.31994016397600844     -0.28634746635298874     0.01684790631091804      -0.01684790631091804     0.28634746635298874      0.31994016397600844      0.5894397240180798
0.3594465711215068        -0.07121998917637547     -0.05339919398735444     -0.08011171590389242     -0.6230844239303845      -0.3382044672248821      -0.3026892600062566      0.017809303300754815     -0.017809303300754815    0.3026892600062566       0.3382044672248821       0.6230844239303845
0.3709797276860334        -0.07350542207619443     -0.05511326471607128     -0.08268284282820723     -0.6430820096134322      -0.349060321308654       -0.31240242131700335     0.018380733012225682     -0.018380733012225682    0.3124024213170033       0.349060321308654        0.6430820096134322
0.3732631350244612        -0.07395790654906642     -0.05545262718926021     -0.08319189080321332     -0.6470412578787672      -0.3512096316825011      -0.31432549474320487     0.0184938685469392       -0.0184938685469392      0.3143254947432048       0.3512096316825011       0.6470412578787672
0.37924800303440276       -0.0751438793251968      -0.05634210466662909     -0.08452611794278365     -0.657418544421416       -0.3568430271206283      -0.31936591642164036     0.018790399120853205     -0.018790399120853205    0.31936591642164036      0.3568430271206283       0.657418544421416
0.42404836262060774       -0.08402160451490939     -0.06300038275686258     -0.09451361801974446     -0.735098829379385       -0.3990124113197468      -0.35709653283820825     0.021010114778570777     -0.021010114778570784    0.35709653283820825      0.3990124113197468       0.735098829379385
0.5154307396595396        -0.10213011163466355     -0.07658173086414725     -0.11488580936238335     -0.8935486533113032      -0.4850282067726481      -0.4340582681264184      0.025537821587764048     -0.02553782158776407     0.43405826812641823      0.4850282067726481       0.8935486533113031
0.5349186290132174        -0.10599186917732832     -0.07947804217263829     -0.11923031079155205     -0.9273391080387807      -0.5033716313294665      -0.4504708550029497      0.02650337829363625      -0.02650337829363626     0.45047085500294953      0.5033716313294665       0.9273391080387806
0.5856348073337236        -0.11604188603295904     -0.08701553568152383     -0.13053664171736132     -1.0152769459799358      -0.5511094018480986      -0.4931837318907919      0.02901618775895543      -0.029016187758955463    0.49318373189079173      0.5511094018480986       1.0152769459799356
0.6383377314885502        -0.12648559871231607     -0.09484829993176391     -0.14228588589592708     -1.1066596408036333      -0.600717245954368       -0.5375698412130494      0.031627446363784416     -0.03162744636378446     0.5375698412130493       0.600717245954368        1.1066596408036333
0.6767680842741397        -0.13410103123518627     -0.1005598595510894      -0.1508532966418632      -1.1732948276910946      -0.6368907027503486      -0.5699356703845583      0.0335315454438123       -0.03353154544381235     0.5699356703845582       0.6368907027503486       1.1732948276910946
0.7605001476365508        -0.1506935311919954      -0.11300420428571611     -0.16951997379802458     -1.3184795704332395      -0.7157054456652565      -0.6404543447189426      0.037680219950960006     -0.03768021995096003     0.6404543447189426       0.7157054456652565       1.3184795704332395
0.852940911167237         -0.16901176192694964     -0.12674284113028056     -0.1901280940110323      -1.4787644232888724      -0.8027173755810721      -0.718307376507189       0.04226032879938917      -0.042260328799389194    0.718307376507189        0.8027173755810721       1.4787644232888724
0.8793251307534107        -0.1742401071253403      -0.1306640896950586      -0.19601001393673445     -1.5245125390827963      -0.8275521105814334      -0.7405280009124451      0.04356757241108237      -0.04356757241108239     0.740528000912445        0.8275521105814334       1.5245125390827963
0.9471234722262047        -0.18767515157167267     -0.14074034672296262     -0.2111245225406044      -1.6420694334746528      -0.8913688271879602      -0.7976273531368774      0.04692674685018508      -0.04692674685018511     0.7976273531368774       0.8913688271879602       1.6420694334746528
0.9576139483830188        -0.18975396363976169     -0.1422994519510647      -0.21346319883895767     -1.66025907848855        -0.9012432239295015      -0.8064623667821624      0.04744651222311397      -0.047446512223114       0.8064623667821623       0.9012432239295015       1.66025907848855
0.9734158544377299        -0.19288529843470376     -0.1446479472887024      -0.2169859696461677      -1.6876583173201873      -0.9161171235813705      -0.8197706335879734      0.04822943984915686      -0.04822943984915689     0.8197706335879734       0.9161171235813705       1.6876583173201873
1.0131991320149503        -0.20076882304120552     -0.15056057535606043     -0.22585498731790504     -1.7566393214222145      -0.9535640292573904      -0.853275869285852       0.05020057712102841      -0.05020057712102844     0.853275869285852        0.9535640292573904       1.7566393214222145
1.0380530026625296        -0.20569391038322019     -0.15425438081161286     -0.2313957422401957      -1.7997339321620638      -0.9769582906291809      -0.8742076472923864      0.05143200575950423      -0.051432005759504254    0.8742076472923864       0.9769582906291809       1.7997339321620638
1.0398218020607697        -0.20604441882717092     -0.15451726142926964     -0.2317900664929977      -1.8028008879141433      -0.9786232126054577      -0.8756973193385255      0.051519644029840356     -0.05151964402984038     0.8756973193385255       0.9786232126054577       1.8028008879141433
1.1652319318319164        -0.23089591664014358     -0.17315583347279434     -0.25974814659078804     -2.0202519200618236      -1.0966682535012477      -0.9813169192250564      0.05773325266448159      -0.05773325266448159     0.9813169192250564       1.0966682535012477       2.0202519200618236
1.172289134004946         -0.23229438332898786     -0.17420468059236438     -0.26132143108004224     -2.032488532755239       -1.103310999439286       -0.9872604492010515      0.05808291588509954      -0.05808291588509954     0.9872604492010515       1.103310999439286        2.032488532755239
1.24462103829135          -0.2466277914141049      -0.184954706963118       -0.27744661217899325     -2.1579061524335383      -1.1713949867771165      -1.048177910654829       0.061666744998408574     -0.061666744998408574    1.048177910654829        1.1713949867771165       2.1579061524335383
1.2763099910163365        -0.25290732795392507     -0.1896643452212425      -0.2845111289765325      -2.2128522074777095      -1.201222895662007       -1.0748661361502527      0.063236824334552        -0.063236824334552       1.0748661361502527       1.201222895662007        2.2128522074777095
1.291315612390338         -0.2558808652385365      -0.19189448779971793     -0.2878563751241652      -2.2388706943728893      -1.2153472334187412      -1.0875037675745802      0.06398030662043341      -0.06398030662043341     1.0875037675745802       1.2153472334187412       2.2388706943728893
1.4125045950499548        -0.2798958550636452      -0.20990568749843969     -0.31487336466741106     -2.449002231292255       -1.3294188110376721      -1.1895681063016166      0.06998468604703428      -0.06998468604703428     1.1895681063016164       1.3294188110376721       2.4490022312922557
1.4329899426182522        -0.2839552630278255      -0.21295023341574815     -0.3194402232703449      -2.484522119384276       -1.348701067272972       -1.206820718889787       0.07099966677848361      -0.07099966677848361     1.2068207188897868       1.348701067272972        2.484522119384277
1.455953033691137         -0.2885056656816035      -0.21636302771148322     -0.3245594526216419      -2.524338224984225       -1.3703155622578094      -1.226160058715326       0.07213739598891057      -0.07213739598891057     1.2261600587153259       1.3703155622578094       2.524338224984226
1.4831156637681775        -0.29388824572590105     -0.2203999517659699      -0.3306148970364425      -2.5714359348954825      -1.3958829519918763      -1.2490362242996633      0.0734832413960575       -0.0734832413960575      1.2490362242996629       1.3958829519918763       2.5714359348954834
1.488303373983518         -0.29491624897870633     -0.2211709515690285      -0.33177140724112114     -2.580430981628984       -1.4007659857141561      -1.253405272214813       0.07374027629998584      -0.07374027629998584     1.2534052722148126       1.4007659857141561       2.5804309816289845
1.4945098939479702        -0.2961461408668828      -0.22209336733082666     -0.33315504344601254     -2.591192557510297       -1.4066079940427636      -1.2586323535253372      0.07404779005780418      -0.07404779005780418     1.2586323535253368       1.4066079940427636       2.5911925575102974
1.6292588200842486        -0.3228481467769757      -0.24211982602062518     -0.3631949644444956      -2.824835629393812       -1.5334430422859062      -1.3721166732700607      0.08072408616215579      -0.08072408616215579     1.3721166732700607       1.5334430422859062       2.824835629393813
1.6412558885274078        -0.3252254933329075      -0.24390283310198727     -0.365869498050063       -2.8456374781720317      -1.5447355048403986      -1.3822204795601076      0.08131850622847563      -0.08131850622847563     1.3822204795601076       1.5447355048403986       2.8456374781720326
1.758594403302218         -0.3484773665134012      -0.26134171025362074     -0.3920280385701463      -3.0490920180682517      -1.6551825520146446      -1.481041756546527       0.0871322904929208       -0.0871322904929208      1.481041756546527        1.6551825520146446       3.0490920180682526
1.7595859653434518        -0.3486738557726168      -0.2614890763480627      -0.3922490894293405      -3.0508112983067854      -1.6561158752163159      -1.4818768402184093      0.08718141712794075      -0.08718141712794075     1.4818768402184093       1.6561158752163159       3.050811298306786
1.7953714841195656        -0.3557651470729367      -0.26680753868704177     -0.40022681221681833     -3.1128601590742737      -1.689799570782525       -1.5120149269520229      0.0889543386602748       -0.0889543386602748      1.5120149269520229       1.689799570782525        3.112860159074274
1.8125923007293214        -0.3591776400971876      -0.2693669051959278      -0.40406587639474706     -3.1427195013611486      -1.7060089409723962      -1.5265180701855812      0.08980750979682965      -0.08980750979682965     1.5265180701855812       1.7060089409723962       3.1427195013611486
1.8134556606632355        -0.35934872219785446     -0.2694952177188034      -0.4042583466867746      -3.1442164842992195      -1.7068215955077997      -1.5272451779863983      0.08985028919497944      -0.08985028919497944     1.5272451779863983       1.7068215955077997       3.1442164842992195
1.813555205857813         -0.3593684479337773      -0.2695100120892092      -0.40428053841720446     -3.144389085804002       -1.7069152940688905      -1.527329013268746       0.08985522153363555      -0.08985522153363555     1.527329013268746        1.7069152940688905       3.144389085804002
1.8583491128195124        -0.36824474561375925     -0.2761672661568418      -0.4142664981856518      -3.222057282440652       -1.7490782999856154      -1.5650536854996009      0.09207470304456403      -0.09207470304456403     1.5650536854996009       1.7490782999856154       3.222057282440652
1.9232020455633643        -0.38109596275023405     -0.28580576263611623     -0.42872436403328573     -3.3345066695419607      -1.8101228185410254      -1.6196720937252629      0.09528824272432697      -0.09528824272432697     1.6196720937252629       1.8101228185410254       3.3345066695419607
1.9843240034432748        -0.3932076845964445      -0.294889697740012       -0.44235030440325657     -3.440485680025952       -1.867654941640175       -1.6711474935858797      0.09831675520010202      -0.09831675520010202     1.6711474935858794       1.867654941640175        3.440485680025952
1.9866592036318107        -0.3936704197201095      -0.29523675534918953     -0.44287088906039784     -3.4445346617293793      -1.8698529828489425      -1.6731141296342422      0.09843245075380444      -0.09843245075380444     1.673114129634242        1.8698529828489425       3.4445346617293793
2.026829128866188         -0.4016303519829602      -0.3012068123409292      -0.45182594433068535     -3.51418491831145        -1.9076635103796102      -1.706944044265874       0.10042263633403384      -0.10042263633403384     1.7069440442658739       1.9076635103796102       3.51418491831145
2.0337419368984997        -0.4030001770372811      -0.30223419447038263     -0.4533670273938879      -3.5261710470612626      -1.914170338912139       -1.712765880238966       0.10076517208984226      -0.10076517208984226     1.7127658802389658       1.914170338912139        3.5261710470612626
2.0410629544054557        -0.40445087180183387     -0.3033222374441197      -0.4549990931497946      -3.538864828535206       -1.9210613413278712      -1.718931403870487       0.10112791666315211      -0.10112791666315211     1.7189314038704868       1.9210613413278712       3.538864828535206
2.0422956699756374        -0.4046951384176407      -0.30350543933742735     -0.4552738995795365      -3.5410021931657103      -1.9222216394951481      -1.7199695571411455      0.1011890034705831       -0.1011890034705831      1.7199695571411453       1.9222216394951481       3.5410021931657103
2.0861764142267414        -0.4133902511886458      -0.31002684266923347     -0.46505613236198406     -3.6170855598329297      -1.9635245550783456      -1.7569245038175285      0.10336349906294484      -0.10336349906294484     1.756924503817528        1.9635245550783456       3.6170855598329297
2.1442068973739183        -0.42488954094047016     -0.3186513218406932      -0.47799315622779914     -3.717705672314218       -2.018147508552337       -1.805797741270058       0.10623957750817783      -0.10623957750817783     1.8057977412700579       2.018147508552337        3.717705672314218
2.152188797943869         -0.426471213358665       -0.31983753211301924     -0.47977264716088985     -3.731545611699949       -2.0256607582652877      -1.812520419021833       0.10663556558717277      -0.10663556558717277     1.8125204190218327       2.0256607582652877       3.731545611699949
2.157470890254431         -0.42751789887482206     -0.32062251710540945     -0.48095024080441096     -3.740704312283518       -2.030632716784228       -1.8169692096510608      0.10689761415177239      -0.10689761415177239     1.8169692096510608       2.030632716784228        3.740704312283518
2.1730128378054667        -0.4305977667518892      -0.3229323862146791      -0.48441499891177303     -3.767652687794909       -2.0452616207873513      -1.8300583705068343      0.10766730349927706      -0.10766730349927706     1.8300583705068343       2.0452616207873513       3.767652687794909
2.1990444506357965        -0.4357563656220336      -0.326801163005052       -0.4902174189310122      -3.812785895983273       -2.069760433495138       -1.851978917952961       0.10895345546482636      -0.10895345546482636     1.851978917952961        2.069760433495138        3.812785895983273
2.257500562841808         -0.44733982097780983     -0.33548958347241853     -0.5032505495210631      -3.9141505904571283      -2.1247913065458874      -1.901213089622618       0.11185380571137805      -0.11185380571137807     1.901213089622618        2.1247913065458874       3.9141505904571283
2.2624934152251654        -0.44832923261995616     -0.33623170187101503     -0.5043637714671603      -3.9228086567215987      -2.1294917262417727      -1.9054184454955094      0.11210151501568466      -0.11210151501568467     1.9054184454955094       2.1294917262417727       3.9228086567215987
2.3124563077081737        -0.4582301298933047      -0.3436581221820886      -0.5155026712339786      -4.0094453112687924      -2.176524791695573       -1.9474965781762605      0.11457605860304254      -0.11457605860304254     1.9474965781762605       2.176524791695573        4.0094453112687924
2.351179806295162         -0.46590204916812583     -0.3494174791512335      -0.5241343389293411      -4.076593891507321       -2.2129856948348143      -1.9800890165999168      0.11648081992741496      -0.11648081992741498     1.9800890165999168       2.2129856948348143       4.076593891507321
2.367406111515953         -0.46911681302792707     -0.3518308221462344      -0.5277512661105142      -4.1047311569366185      -2.2282639048249058      -1.9937462240592083      0.11727897194750152      -0.11727897194750152     1.9937462240592083       2.2282639048249058       4.1047311569366185
2.374687223992977         -0.4705592389285027      -0.3529138238982714      -0.529374051863295       -4.117356157005004       -2.2351192012909884      -1.9998732136153718      0.11763625790136215      -0.11763625790136215     1.9998732136153718       2.2351192012909884       4.117356157005004
2.3840870928167597        -0.4724213886184174      -0.3543118660934774      -0.5314694417337319      -4.1336561424522         -2.2439705879785246      -2.0077849458913306      0.11809939141766233      -0.11809939141766233     2.0077849458913306       2.2439705879785246       4.1336561424522
2.4023719565400485        -0.476043689519714       -0.35703137330128776     -0.5355454473617212      -4.165363288390181       -2.261188530311319       -2.023175048582449       0.11900029050359523      -0.11900029050359523     2.023175048582449        2.261188530311319        4.165363288390181
2.4189837899751248        -0.4793346084275405      -0.3595026643782588      -0.5392470644669061      -4.194165467857486       -2.276827034147317       -2.0371494815879276      0.11981104787776738      -0.11981104787776736     2.0371494815879276       2.276827034147317        4.194165467857486
2.4228950136339553        -0.4801092341964629      -0.36008486161297204     -0.540118492254712       -4.200947022250694       -2.2805100854648357      -2.0404378525728566      0.12000091578700642      -0.1200009157870064      2.0404378525728566       2.2805100854648357       4.200947022250694
2.4344397073463355        -0.48239568417324585     -0.3618033234912091      -0.5426906711379019      -4.220964023371731       -2.291381286678739       -2.0501440824244703      0.12056134573148827      -0.12056134573148826     2.0501440824244703       2.291381286678739        4.220964023371731
2.4697572063493616        -0.48938886940423676     -0.3670550941648394      -0.5505626738600546      -4.282193716743215       -2.3246382391262563      -2.0798631517541697      0.1223076741372249       -0.12230767413722488     2.0798631517541697       2.3246382391262563       4.282193716743215
2.4992662022975414        -0.4952390479727613      -0.371441888526005       -0.5571399195154445      -4.333363439585321       -2.352407247694264       -2.104712108429281       0.12375591653823842      -0.12375591653823839     2.104712108429281        2.352407247694264        4.333363439585321
2.509113094593647         -0.49153449477126954     -0.3684965303282156      -0.55315505383469        -4.301178795865951       -2.335040816780861       -2.0901996138966474      0.12406163481157195      -0.12406163481157192     2.0901996138966474       2.335040816780861        4.301178795865951
2.530122393525806         -0.48345253378849695     -0.3625706604145433      -0.5440929210020158      -4.230988732828691       -2.2971785976746926      -2.055564770341419       0.12175463518743634      -0.12175463518743632     2.055564770341419        2.2971785976746926       4.230988732828691
2.540831946252389         -0.4793327300978227      -0.3595499305702836      -0.5394734717904923      -4.19520913906847        -2.2778782186771687      -2.0379095556467544      0.12057863525546973      -0.12057863525546972     2.0379095556467544       2.2778782186771687       4.19520913906847
2.554639409873512         -0.4743766956450116      -0.35562990037551184     -0.5336977583108566      -4.15043412565999        -2.252927343079933       -2.016654723406904       0.11914794082686442      -0.11914794082686442     2.016654723406904        2.252927343079933        4.15043412565999
2.5760230034207656        -0.46681585574729967     -0.3497278577233018      -0.5254432228356513      -4.084588176007115       -2.2173247530179054      -1.9862210296672878      0.11895760667809674      -0.11895760667809674     1.9862210296672878       2.2173247530179054       4.084588176007115
2.5772284020720724        -0.4663896492635621      -0.34939515806563165     -0.5249779125543372      -4.080876422941373       -2.215317825887114       -1.984505474547567       0.11894687749332641      -0.11894687749332641     1.984505474547567        2.215317825887114        4.080876422941373
2.5893782190994026        -0.46197906860187765     -0.3460716244178889      -0.5202718684849337      -4.043260484397161       -2.1953442099896407      -1.966830737889813       0.11891446348230938      -0.11891446348230937     1.966830737889813        2.1953442099896407       4.043260484397161
2.6090459394129417        -0.45496104207782956     -0.34083964758795793     -0.5121579152408821      -3.9810726878830653      -2.161228519571739       -1.9360348023553042      0.11619063404399263      -0.11619063404399263     1.9360348023553042       2.161228519571739        3.9810726878830653
2.618906718908506         -0.45137040264332223     -0.33818337047454533     -0.5080923235758809      -3.949660211013808       -2.144178600440511       -1.9205599881665232      0.11507837759324067      -0.11507837759324067     1.9205599881665232       2.144178600440511        3.949660211013808
2.6260873389142976        -0.44875569886979066     -0.3362490693789694      -0.5051317595699393      -3.9267856441562508      -2.1317628486770803      -1.9092912278824214      0.11426843240326506      -0.11426843240326506     1.9092912278824214       2.1317628486770803       3.9267856441562508
2.633245265217945         -0.44621566108194816     -0.3344187802275889      -0.5025806663409745      -3.906010328210565       -2.1211476838827648      -1.8994976468450204      0.11463500251723266      -0.11463500251723266     1.8994976468450204       2.1211476838827648       3.906010328210565
2.66189236845087          -0.4368678084915757      -0.32738417847767554     -0.4920861657631824      -3.8242328154689114      -2.076761581502602       -1.8599277446028508      0.11245651063655072      -0.11245651063655072     1.8599277446028508       2.076761581502602        3.8242328154689114
2.669295456034871         -0.43445210276083635     -0.3255662713598164      -0.4893741391301213      -3.8030995761216095      -2.0652911650782593      -1.8497019479627057      0.11189353691936232      -0.11189353691936234     1.8497019479627057       2.0652911650782593       3.8030995761216095
2.6879916993415045        -0.428466985851088       -0.32111594565888063     -0.4820535416267471      -3.748495975185809       -2.0346280317814527      -1.8218003012325206      0.10793235782817055      -0.1079323578281706      1.8218003012325206       2.0346280317814527       3.748495975185809
2.6955076087388203        -0.42610472258636517     -0.31941232991178825     -0.4794781556400455      -3.72835905746828        -2.0239401671228148      -1.811885077997546       0.10746618765208693      -0.10746618765208696     1.811885077997546        2.0239401671228148       3.72835905746828
2.7057913820643726        -0.42287251492319544     -0.31708132813265566     -0.4759543391179215      -3.7008063707160472      -2.0093163110232606      -1.7983184019201088      0.10682834222732829      -0.10682834222732832     1.7983184019201088       2.0093163110232606       3.7008063707160472
2.717841620672523         -0.4189454197429282      -0.3143093679254401      -0.4715761096499851      -3.6671233818621207      -1.9913417028904026      -1.7812671743094755      0.10548549533776352      -0.10548549533776352     1.7812671743094755       1.9913417028904026       3.6671233818621207
2.7389825087700066        -0.41256182844561884     -0.309529728068006       -0.4641801223677906      -3.6104333305664205      -1.9601860167839409      -1.753254962158381       0.10300764837590638      -0.10300764837590637     1.753254962158381        1.9601860167839409       3.6104333305664205
2.7460969004913167        -0.4104151336460798      -0.30785671674517723     -0.46174146840475533     -3.5913662911467146      -1.9497057565623916      -1.7442259906756483      0.10256545609132967      -0.10256545609132965     1.7442259906756483       1.9497057565623916       3.5913662911467146
2.7549416759064984        -0.4077463132984468      -0.3057767905902601      -0.45870967771015736     -3.5676617092083043      -1.9366764560145144      -1.7330009656667416      0.10201571247295503      -0.10201571247295502     1.7330009656667416       1.9366764560145144       3.5676617092083043
2.7869505985687884        -0.3984721483365545      -0.29884748983098475     -0.4483289380862051      -3.486802518510885       -1.8929139251646643      -1.693717579524974       0.09982898617875699      -0.09982898617875702     1.693717579524974        1.8929139251646643       3.486802518510885
2.7969735339329818        -0.3955681344479702      -0.29667772190839564     -0.4450784231163285      -3.4614831270864426      -1.8792105892945596      -1.6814167956360664      0.09914425784418669      -0.0991442578441867      1.6814167956360664       1.8792105892945596       3.4614831270864426
2.8024091709960386        -0.39405256946317496     -0.295516359708596       -0.443270758420531       -3.447737251734263       -1.871526973881561       -1.6746390934826851      0.09842881562998623      -0.09842881562998625     1.6746390934826851       1.871526973881561        3.447737251734263
2.8088876058440704        -0.3923595323786714      -0.2941951077802267      -0.44127725448663446     -3.432413406044562       -1.8629752765298742      -1.6672427593631998      0.09780462984851526      -0.09780462984851529     1.6672427593631998       1.8629752765298742       3.432413406044562
2.834143905044516         -0.38551350920194366     -0.2890621619408495      -0.4336858786612358      -3.37295701887138        -1.8309029820636034      -1.6385840472262811      0.0965300104185074       -0.0965300104185074      1.6385840472262811       1.8309029820636034       3.37295701887138
2.848691396604763         -0.38157023692779535     -0.28610561293559245     -0.4293132872980201      -3.338710461854449       -1.8124295141432663      -1.6220767842408925      0.09579583652971208      -0.09579583652971208     1.6220767842408925       1.8124295141432663       3.338710461854449