% Model:              Sphere_potential.mph
% Version:            COMSOL 6.2.0.278
% Date:               Oct 11 2024, 12:26
% Dimension:          1
% Nodes:              533
% Expressions:        11
% Description:        Line graph
% Arc length (m)          Magnetic scalar potential Magnetic scalar potential Magnetic scalar potential Magnetic scalar potential Magnetic scalar potential Magnetic scalar potential Magnetic scalar potential Magnetic scalar potential Magnetic scalar potential Magnetic scalar potential Magnetic scalar potential
0                         8.645312016605962E-6     2.21632358982572E-5      2.0976183541587355E-5    1.6768506589417368E-4    1.331038178282451E-4     3.4705650505330483E-5    -1.2440243890923797E-7   1.2440243890576852E-7    -3.4705650505342626E-5   -1.331038178282451E-4    -1.6768506589415807E-4
0.015148178221754047      0.005056761776099786     2.217603267912118E-5     2.0974773663249343E-5    0.01026395074488985      -0.00996309635950881     0.010130894548815805     0.010096152555583323     -0.010096152555583323    -0.010130894548815819    0.00996309635950881      -0.010263950744889833
0.033595452367049555      0.011204298923278871     2.219161644908662E-5     2.0973056729911002E-5    0.02255906492282464      -0.02225813077029036     0.0224259152241308       0.022391280468984646     -0.022391280468984646    -0.022425915224130812    0.02225813077029036      -0.02255906492282463
0.06526509915968914       0.021758178812125325     2.221724774339193E-5     2.096953606095975E-5     0.043666887511724706     -0.043365827736776066    0.04353358402526497      0.04349913122323626      -0.04349913122323626     -0.043533584025264985    0.043365827736776066     -0.0436668875117247
0.08608699929907179       0.02869705719919804      2.2233974251249962E-5    2.0967115780839984E-5    0.05754468478427326      -0.05724354401251841     0.057411280938766296     0.05737694785802576      -0.05737694785802576     -0.05741128093876631     0.05724354401251841      -0.057544684784273256
0.10733413827692417       0.03577764651633713      2.225131953789575E-5     2.096485124279527E-5     0.07170590639625922      -0.0714046796690888      0.07157239847903242      0.07153818758631601      -0.07153818758631601     -0.07157239847903243     0.0714046796690888       -0.07170590639625922
0.16707221852017187       0.05568530641672226      2.23006033422948E-5      2.0957905677486182E-5    0.11152134626618118      -0.11121987940070738     0.11138754264612821      0.11135368302076094      -0.11135368302076094     -0.11138754264612823     0.11121987940070738      -0.11152134626618118
0.16867452814647246       0.056219274631684545     2.2301948916106026E-5    2.095772336333174E-5     0.11258928600357057      -0.11228781252316716     0.11245547431007474      0.11242162421666357      -0.11242162421666357     -0.11245547431007474     0.11228781252316716      -0.11258928600357057
0.3068044167577016        0.10225093345967874      2.241794644654467E-5     2.0942006654554868E-5    0.20465288878531507      -0.20435084505339957     0.20451838110663695      0.20448535273207846      -0.20448535273207846     -0.20451838110663695     0.20435084505339957      -0.20465288878531507
0.36484242736545913       0.12159204672066724      2.246378123379328E-5     2.0934618070190744E-5    0.24333522325731627      -0.24303296362535237     0.24320044056991477      0.2431677463127547       -0.2431677463127547      -0.24320044056991477     0.24303296362535237      -0.24333522325731627
0.4107413890936502        0.13688783365432144      2.2500950610609277E-5    2.0928581664031096E-5    0.2739268844871305       -0.2736244501301552      0.27379187878346817      0.2737594558338183       -0.2737594558338183      -0.27379187878346817     0.2736244501301552       -0.2739268844871305
0.4755544403317783        0.15848672519947538      2.255509662166255E-5     2.0921263000084518E-5    0.3171248007408158       -0.3168221000570858      0.31698947016108703      0.3169574306368151       -0.3169574306368151      -0.31698947016108703     0.3168221000570858       -0.3171248007408158
0.4810272682733229        0.16031054023204358      2.255966872244039E-5     2.092064501053089E-5     0.32077244205029637      -0.3204697188778781      0.320637084037963        0.3206050768902121       -0.3206050768902121      -0.320637084037963       0.3204697188778781       -0.32077244205029637
0.5341513425223896        0.17801409024103457      2.2603522174841073E-5    2.0914139406006185E-5    0.35617964760621756      -0.3558767133579209      0.35604402647316963      0.3560123344909695       -0.3560123344909694      -0.35604402647316963     0.3558767133579209       -0.35617964760621756
0.5893427314043888        0.19640657155249344      2.2650189938324544E-5    2.090714832883589E-5     0.3929647222681172       -0.3926615639418569      0.3928288211284882       0.39279746508148633      -0.3927974650814863      -0.3928288211284882      0.3926615639418569       -0.3929647222681172
0.6571496744890406        0.21900317357202376      2.2706255123561107E-5    2.08981632756379E-5      0.43815805856252077      -0.43785463572557437     0.4380218210317804       0.43799087325631536      -0.43799087325631536     -0.4380218210317804      0.43785463572557437      -0.43815805856252077
0.6609429584937575        0.22026728201140033      2.2709391545302354E-5    2.089766063008208E-5     0.4406862828399569       -0.4403828452056445      0.44055002649068614      0.440519101554916        -0.44051910155491597     -0.44055002649068614     0.44038284520564447      -0.4406862828399569
0.7380268844563577        0.24595543117853344      2.277126050501989E-5     2.08878386105389E-5      0.49206272749302415      -0.4917589972211096      0.49192609992999514      0.49189562478413956      -0.4918956247841395      -0.49192609992999514     0.49175899722110955      -0.49206272749302415
0.8011667720073218        0.2669967437405401       2.2823671051023717E-5    2.0880927797803893E-5    0.5341454822054246       -0.5338414927567356      0.5340085401791196       0.5339784347830417       -0.5339784347830417      -0.5340085401791196      0.5338414927567356       -0.5341454822054246
0.8420992930832866        0.2806374707566456       2.2857647921454595E-5    2.0876447634804625E-5    0.5614270202475946       -0.5611228627789873      0.5612898743600673       0.561260008666516        -0.561260008666516       -0.5612898743600673      0.5611228627789873       -0.5614270202475946
0.8609458773465826        0.28691807858474716      2.2873534116191457E-5    2.0874801913719175E-5    0.5739882769794975       -0.5736840373594904      0.5738510357748017       0.5738212785641877       -0.5738212785641877      -0.5738510357748017      0.5736840373594904       -0.5739882769794975
0.8922423043183552        0.29734758526621013      2.2900158763475634E-5    2.0871652091266832E-5    0.5948473576170754       -0.5945429834477645      0.5947099566644959       0.5946803844003454       -0.5946803844003454      -0.5947099566644959      0.5945429834477645       -0.5948473576170754
0.9205855967550641        0.30679296246885174      2.2924271105902172E-5    2.0868799486432627E-5    0.6137381729489663       -0.6134336769264395      0.6136006273223323       0.6135712225530753       -0.6135712225530753      -0.6136006273223323      0.6134336769264395       -0.6137381729489663
0.9739202867186613        0.3245666993867632       2.2968321431664652E-5    2.086394419580236E-5     0.6492857595146034       -0.6489810380324473      0.6491479495860151       0.6491188479610378       -0.6491188479610378      -0.6491479495860151      0.6489810380324474       -0.6492857595146034
0.996575594049097         0.3321165603625839       2.2986863830288563E-5    2.086179465187279E-5     0.6643855284952649       -0.6640807129550683      0.6642476073122846       0.6642186341380508       -0.6642186341380508      -0.6642476073122846      0.6640807129550685       -0.6643855284952649
1.0568403216956237        0.3521997292556185       2.3038317038549458E-5    2.085434989170746E-5     0.7045519908619182       -0.7042469261605533      0.7044137609596882       0.7043851560627857       -0.7043851560627857      -0.7044137609596882      0.7042469261605535       -0.7045519908619182
1.0581653056195786        0.35264127898407827      2.3039436214259898E-5    2.0854247509751248E-5    0.7054350932668371       -0.7051300226694737      0.7052968566495528       0.7052682592867603       -0.7052682592867603      -0.7052968566495528      0.7051300226694738       -0.7054350932668371
1.1387254276070145        0.3794878688521742       2.310748302650342E-5     2.084802260174731E-5     0.7591284522438327       -0.75882302316486        0.7589898073456746       0.7589616680630207       -0.7589616680630207      -0.7589898073456746      0.75882302316486         -0.7591284522438327
1.1491610922606996        0.38296554513920816      2.311649074736397E-5     2.084743575985447E-5     0.7660838294936956       -0.765778351063133       0.7659451305492123       0.7659170500076187       -0.7659170500076187      -0.7659451305492123      0.765778351063133        -0.7660838294936956
1.2250562475329567        0.4082575441559054       2.3181295386689657E-5    2.0843424466646283E-5    0.8166680058958353       -0.8163621707277835      0.8165289181235167       0.8165012585001049       -0.8165012585001049      -0.8165289181235167      0.8163621707277836       -0.8166680058958353
1.2409136304515933        0.41354200430031673      2.319443237044916E-5     2.0841999755980868E-5    0.8272369598967668       -0.8269310573044979      0.8270977933025456       0.827070223898722        -0.827070223898722       -0.8270977933025456      0.8269310573044979       -0.8272369598967668
1.2428930633303865        0.41420164872021825      2.319607222348377E-5     2.084182191332013E-5     0.8285562529447582       -0.8282503419361125      0.8284170765114188       0.8283895183694547       -0.8283895183694547      -0.8284170765114188      0.8282503419361125       -0.8285562529447582
1.2457875156432436        0.4151662221073067       2.319855434128673E-5     2.0841602411243894E-5    0.8304854062872802       -0.8301794821419441      0.830346214961234        0.8303186734679934       -0.8303186734679934      -0.830346214961234       0.8301794821419441       -0.8304854062872802
1.2613589976122457        0.4203554031617358       2.3211907559208753E-5    2.0840421540995087E-5    0.8408638037323111       -0.84055780891463        0.8407245322869574       0.8406970803599865       -0.8406970803599865      -0.8407245322869574      0.84055780891463         -0.8408638037323111
1.2710012609371713        0.42356867932540826      2.322022132918676E-5     2.083954251821344E-5     0.8472903774848748       -0.8469843398167558      0.8471510561569011       0.8471236611447324       -0.8471236611447324      -0.8471510561569011      0.8469843398167558       -0.8472903774848748
1.3224527389017213        0.4407148411919719       2.3264583916927234E-5    2.0834852019752884E-5    0.8815828155437713       -0.8812765492241128      0.8814432280402706       0.8814161367276163       -0.8814161367276163      -0.8814432280402706      0.8812765492241128       -0.8815828155437713
1.3780924493194342        0.4592567252306953       2.331220644346773E-5     2.082879228511563E-5     0.9186667022498585       -0.9183601986729173      0.918526829011198        0.9185000719115806       -0.9185000719115806      -0.918526829011198       0.9183601986729172       -0.9186667022498585
1.4096338528709769        0.4697678724743596       2.3339136162283097E-5    2.0826934028134018E-5    0.9396890700933158       -0.9393824198041177      0.9395490352763423       0.9395224546210937       -0.9395224546210937      -0.9395490352763423      0.9393824198041176       -0.9396890700933158
1.4184970105583738        0.4727215144699617       2.3346793252397406E-5    2.0825370745526542E-5    0.94559637080266         -0.9452896870771822      0.9454562900431456       0.9454297678366987       -0.9454297678366987      -0.9454562900431456      0.9452896870771821       -0.94559637080266
1.4728002965164926        0.490818052541344        2.3392127285829672E-5    2.082013068461445E-5     0.9817895619872814       -0.9814826481780895      0.9816492092235656       0.981623000941807        -0.981623000941807       -0.9816492092235656      0.9814826481780894       -0.9817895619872814
1.5615135119799661        0.5203816851757931       2.3466192502144415E-5    2.0810204026859764E-5    1.0409170097451983       -1.0406097309579692      1.040776212590183        1.040750528112985        -1.040750528112985       -1.040776212590183       1.0406097309579692       -1.0409170097451983
1.5689159888832547        0.5228485549229372       2.3472342688245885E-5    2.0809247345880943E-5    1.0458507638633208       -1.0455434558284231      1.045709929807189        1.0456842898845555       -1.0456842898845555      -1.045709929807189       1.0455434558284231       -1.0458507638633208
1.5692804695271274        0.5229700178963078       2.3472644675979343E-5    2.08092413922514E-5      1.0460936906922105       -1.0457863808930155      1.0459528548241523       1.0459272167610743       -1.0459272167610743      -1.0459528548241523      1.0457863808930155       -1.0460936906922105
1.5710217971780158        0.5235503148485382       2.3474055103608118E-5    2.0809106898082342E-5    1.0472542882899774       -1.0469469711041701      1.0471134439593537       1.0470878154347947       -1.0470878154347947      -1.0471134439593537      1.0469469711041701       -1.0472542882899774
1.6361360414722514        0.5452496130925386       2.352663301900923E-5     2.0803605960667505E-5    1.0906530205079754       -1.0903454318621735      1.0905118607098587       1.0904865916602913       -1.0904865916602913      -1.0905118607098587      1.0903454318621735       -1.0906530205079754
1.7163649180733316        0.5719858639914888       2.3590451639091126E-5    2.0794587777478793E-5    1.1441256776890034       -1.143817778276945       1.1439841349791657       1.143959320986784        -1.143959320986784       -1.1439841349791657      1.143817778276945        -1.1441256776890034
1.7332918286142507        0.5776267479484727       2.3603662764888622E-5    2.078807907142529E-5     1.1554074592015242       -1.1550995325923594      1.1552658372249318       1.1552411545689534       -1.1552411545689534      -1.1552658372249318      1.1550995325923594       -1.1554074592015242
1.7687743835454328        0.5894513073562874       2.3635367416840916E-5    2.079715329906932E-5     1.1790567094280195       -1.1787485199971215      1.1789148972235157       1.1788903322016273       -1.1788903322016273      -1.1789148972235157      1.1787485199971215       -1.1790567094280195
1.7764794492023444        0.5920190222987347       2.364184816816572E-5     2.0798979954067586E-5    1.1841921660617885       -1.183883923133142       1.1840503149727766       1.184025774222156        -1.184025774222156       -1.1840503149727766      1.183883923133142        -1.1841921660617885
1.7833866633061712        0.5943208521237495       2.3649265587592978E-5    2.0800952716534587E-5    1.188795855855126        -1.188487552639863       1.1886539602615978       1.188629448233394        -1.188629448233394       -1.1886539602615978      1.188487552639863        -1.188795855855126
1.8184732393025103        0.6060134541593265       2.3683747930198064E-5    2.080302323040768E-5     1.2121811716553632       -1.2118726449819337      1.21203906916778         1.2120147474695202       -1.2120147474695202      -1.21203906916778        1.2118726449819337       -1.2121811716553632
1.8698286218078968        0.6231276389199321       2.3735398850173797E-5    2.0809101709851855E-5    1.2464097204432523       -1.246100835236467       1.24626730805015         1.2462432476295733       -1.2462432476295733      -1.24626730805015        1.246100835236467        -1.2464097204432523
1.8716789164642313        0.6237442476950301       2.3740303501073624E-5    2.080890735735243E-5     1.2476429519299912       -1.2473340388501206      1.2475005101089836       1.247476480671132        -1.247476480671132       -1.2475005101089836      1.2473340388501206       -1.2476429519299912
1.922010171624384         0.6405170862735807       2.387371859529242E-5     2.080362062898528E-5     1.2811890081854609       -1.2808793369088523      1.2810457658738879       1.2810225792204286       -1.2810225792204286      -1.2810457658738879      1.2808793369088523       -1.2811890081854609
1.9389299642972837        0.6461555822353411       2.3913972074114317E-5    2.0799227695773208E-5    1.2924661032976854       -1.2921562256436696      1.2923226194652397       1.2922997094761188       -1.2922997094761188      -1.2923226194652397      1.2921562256436696       -1.2924661032976854
1.9991416161846562        0.6662209254023228       2.409161652293509E-5     2.0683692114563E-5       1.3325968604226703       -1.332286841186613       1.3324523107235329       1.3324313908857546       -1.3324313908857546      -1.3324523107235329      1.332286841186613        -1.3325968604226703
2.0744630632979026        0.6913214768764632       2.443774260926356E-5     2.0522336696785718E-5    1.3827983563275397       -1.3824875511783081      1.382651729871884        1.3826341776339661       -1.3826341776339661      -1.382651729871884       1.3824875511783081       -1.3827983563275397
2.1220116121255788        0.7071668537371378       2.4635566331510615E-5    2.041764222476079E-5     1.4144892847421677       -1.4141781302063796      1.4143414713441784       1.414325943604371        -1.414325943604371       -1.4143414713441784      1.4141781302063796       -1.4144892847421677
2.126178286666327         0.7085553891474862       2.4640322267809912E-5    2.042147379045442E-5     1.4172663851569363       -1.4169551714330049      1.417118543223329        1.4171030133666136       -1.4171030133666136      -1.417118543223329       1.4169551714330049       -1.4172663851569363
2.1270135305828894        0.7088337324025404       2.4641275634057838E-5    2.0422241859079614E-5    1.4178230775994178       -1.4175118520107401      1.4176752299456135       1.4176596996645463       -1.4176596996645463      -1.4176752299456135      1.4175118520107401       -1.4178230775994178
2.1280021875605564        0.7091631779301966       2.4632132133569837E-5    2.0429875898651546E-5    1.4184819717603867       -1.4181707399603956      1.4183341789675852       1.4183185327531986       -1.4183185327531986      -1.4183341789675852      1.4181707399603956       -1.4184819717603867
2.1325985972934687        0.7106948179873532       2.458962267317625E-5     2.0465367656270772E-5    1.4215452663133494       -1.4212340056360595      1.4213977285773103       1.4213815433721004       -1.4213815433721004      -1.4213977285773103      1.4212340056360595       -1.4215452663133494
2.1336215183533853        0.711035773160388        2.4613796946340236E-5    2.0422885600387703E-5    1.4222270792540153       -1.4219160133875333      1.4220793964723373       1.422063696169213        -1.422063696169213       -1.4220793964723373      1.4219160133875333       -1.4222270792540153
2.1378449819980676        0.7124435179358225       2.4713608327538508E-5    2.02474845595723E-5      1.4250421666348645       -1.424731905108422       1.424893884984899        1.424880186758389        -1.424880186758389       -1.424893884984899       1.424731905108422        -1.4250421666348645
2.1813585803923097        0.7269454205820185       2.464600126236881E-5     2.0525025245236644E-5    1.4540468792688035       -1.4537348030592665      1.4538990032612291       1.4538826790668424       -1.4538826790668424      -1.4538990032612291      1.4537348030592665       -1.4540468792688035
2.25191846302165          0.7504635135652005       2.518337649906133E-5     2.070689513978467E-5     1.5010854048404558       -1.5007686494203423      1.5009343045814614       1.500919749679338        -1.500919749679338       -1.5009343045814614      1.5007686494203423       -1.5010854048404558
2.2586202264684694        0.7526957178582085       2.5729191929917215E-5    2.033416248182129E-5     1.5055499599421327       -1.5052329114906975      1.5053955847905534       1.5053872866422786       -1.5053872866422786      -1.5053955847905534      1.5052329114906975       -1.5055499599421327
2.296945828571925         0.7654871660954369       3.072743073659519E-5     1.7737005480585044E-5    1.5311374625050047       -1.5308112018767392      1.5309530979205852       1.5309955664611603       -1.5309955664611603      -1.5309530979205852      1.5308112018767392       -1.5311374625050047
2.3056960569195932        0.7684078023128219       3.1830845228492284E-5    1.7272900913729286E-5    1.5369801887649832       -1.536651020486301       1.5367892036936124       1.5368420055576735       -1.5368420055576735      -1.5367892036936124      1.536651020486301        -1.5369801887649832
2.3554290571448764        0.7850036938292976       3.7588590810442093E-5    1.409808288227335E-5     1.5701765457625545       -1.5698382295546323      1.5699510142176918       1.5700637610994963       -1.5700637610994963      -1.5699510142176918      1.5698382295546323       -1.5701765457625545
2.375990781113318         0.7918651367108089       3.996908615156846E-5     1.2785478942895076E-5    1.583901322595843        -1.5835592242473888      1.5836615080789334       1.5837990387642997       -1.5837990387642997      -1.5836615080789334      1.5835592242473888       -1.583901322595843
2.379338527247848         0.7929814988799369       4.060064016375925E-5     1.237886814396379E-5     1.5861343151529392       -1.5857916803668037      1.585890711311957        1.5860352842077876       -1.5860352842077876      -1.585890711311957       1.5857916803668037       -1.5861343151529392
2.5                       0.8333005762902406       6.939404012986117E-5     -3.8156345569627266E-6   1.6667940721626417       -1.6664082329983172      1.6663777079218625       1.6668245972390978       -1.6668245972390978      -1.6663777079218625      1.6664082329983172       -1.6667940721626417
2.5649374200481905        0.7914737347411247       -1.6711014984017915E-5   3.93710855396091E-5      1.5830548207794553       -1.5828401181850413      1.5831550868693594       1.5827398520951386       -1.5827398520951386      -1.5831550868693594      1.5828401181850413       -1.5830548207794553
2.570993458696031         0.7877868482043462       1.0637924116691823E-4    -9.620433794148644E-5    1.5755080167804263       -1.5756393760369558      1.5748697413334252       1.5762776514839585       -1.5762776514839585      -1.5748697413334252      1.5756393760369558       -1.5755080167804263
2.5712354617002586        0.7876416912897908       1.1152933362116278E-4    -9.884323012951836E-5    1.5752225976599261       -1.5753441674992343      1.5745534216581996       1.5760133435009627       -1.5760133435009627      -1.5745534216581996      1.5753441674992343       -1.5752225976599261
2.5785896897089615        0.7833001097641152       9.347078980397538E-5     -9.130358873831118E-5    1.5665154175426887       -1.5666850215137704      1.5659545928038652       1.5672458462525956       -1.5672458462525956      -1.5659545928038652      1.5666850215137704       -1.5665154175426887
2.5888208359417564        0.7771789626089385       6.372430124169026E-5     -6.0152720473489356E-5   1.5543084872397077       -1.5544073631960442      1.5539261414322578       1.554789709003496        -1.554789709003496       -1.5539261414322578      1.5544073631960442       -1.5543084872397077
2.6298748400963823        0.7526169443343661       -5.5637932200659204E-5   6.484479652662113E-5     1.5053263540582362       -1.5051414232792268      1.5056601816514408       1.5048075956860238       -1.5048075956860238      -1.5056601816514408      1.5051414232792268       -1.5053263540582362
2.641986917392062         0.7457982002849766       1.7138763729530803E-4    -1.7748344705596027E-4   1.491400629693615        -1.4917921714462898      1.4903723038698435       1.4928204972700627       -1.4928204972700627      -1.4903723038698435      1.4917921714462898       -1.491400629693615
2.642470923400517         0.7455300657547593       1.8092237898680437E-4    -1.8160946259217176E-4   1.4908764607961102       -1.4912438022229257      1.4897909265221898       1.4923293364968475       -1.4923293364968475      -1.4897909265221898      1.4912438022229257       -1.4908764607961102
2.657179379417924         0.7375209092995577       1.2154424150122105E-4    -1.3152908265959262E-4   1.4748803349929802       -1.4752033022052489      1.4741510695439732       1.4759325676542574       -1.4759325676542574      -1.4741510695439732      1.4752033022052489       -1.4748803349929802
2.664135374513297         0.7336779923115953       9.031934300864617E-5     -9.379720784009795E-5    1.4672517538208556       -1.4674602154255239      1.466709837762804        1.4680021314835772       -1.4680021314835772      -1.466709837762804       1.4674602154255239       -1.4672517538208556
2.694812260144574         0.7167302050699649       -4.7386711520066346E-5   7.260549840407181E-5     1.4336086719989851       -1.4333121482808724      1.433892992268106        1.433027828011753        -1.433027828011753       -1.433892992268106       1.4333121482808724       -1.4336086719989851
2.7148941037546592        0.7064384663383528       -1.9657879087735947E-4   2.551824435617103E-4     1.41330792607832         -1.4124459392750897      1.4144873988235847       1.4112664665298267       -1.4112664665298267      -1.4144873988235847      1.4124459392750897       -1.41330792607832
2.7213054331004365        0.7031527258540513       -2.4420985379733536E-4   3.13471958662E-4         1.4068267099813583       -1.4057841934348456      1.408291969104143        1.4043189343120628       -1.4043189343120628      -1.408291969104143       1.4057841934348456       -1.4068267099813583
2.7386502298360433        0.694261905505063        -3.8075048293528075E-4   2.0131010647909313E-4    1.3881867999872362       -1.3888608220330143      1.3904713028848483       1.386576319135404        -1.386576319135404       -1.3904713028848483      1.3888608220330143       -1.3881867999872362
2.7597496801927655        0.6834187675842459       -1.9099570087455393E-5   6.253205413994417E-5     1.3670303646747888       -1.3666447056621935      1.3671449620953138       1.3665301082416699       -1.3665301082416699      -1.3671449620953138      1.3666447056621935       -1.3670303646747888
2.7754730306418622        0.6759075742154836       -1.6569558543397386E-4   2.2846263405106287E-4    1.3522319122108692       -1.3513983846510638      1.3532260857234732       1.350404211138461        -1.350404211138461       -1.3532260857234732      1.3513983846510638       -1.3522319122108692
2.776631791375545         0.6753540232425537       -1.7649924377942383E-4   2.4069118808225422E-4    1.3511413135060977       -1.3502747794641154      1.3522003089687744       1.34921578400144         -1.34921578400144        -1.3522003089687744      1.3502747794641154       -1.3511413135060977
2.7983127872950533        0.6649945686695464       -3.882444041988825E-4    1.3217540050807256E-4    1.3293531057285284       -1.3306251689496562      1.3316825721537215       1.3282957025244637       -1.3282957025244637      -1.3316825721537215      1.3306251689496562       -1.3293531057285284
2.806601459728909         0.6610232509407593       -2.618749446876834E-4    8.977186486786872E-5     1.3216199645069269       -1.322473039256109       1.3231912141750533       1.3209017895879838       -1.3209017895879838      -1.3231912141750533      1.322473039256109        -1.3216199645069269
2.824687100240957         0.6523579519589094       1.385951516217395E-5     -2.751408086697411E-6    1.3047464768309585       -1.3046853310046782      1.3046633197399857       1.304768488095652        -1.304768488095652       -1.3046633197399857      1.3046853310046782       -1.3047464768309585
2.8319581496506547        0.6491373918699934       -6.77050516661973E-5     8.460748574654617E-5     1.2984100985279743       -1.2981394689519983      1.2988163288379717       1.2977332386420017       -1.2977332386420017      -1.2988163288379717      1.2981394689519983       -1.2984100985279743
2.8414949028338126        0.6448503644793335       -1.7209278536118103E-4   8.741197132536836E-5     1.2895340984878845       -1.2898673594294479      1.2905666552000519       1.2888348027172818       -1.2888348027172818      -1.2905666552000519      1.2898673594294479       -1.2895340984878845
2.857975344754064         0.6374419620004833       -3.524849952995495E-4    9.225839660348097E-5     1.2741955026014815       -1.2755723454004502      1.2763104125732792       1.2734574354286536       -1.2734574354286536      -1.2763104125732792      1.2755723454004502       -1.2741955026014815
2.877510111400942         0.629068318480105        -2.865035539393545E-4    1.3003570057662658E-4    1.2577972691006982       -1.2584760048197208      1.2595162904243347       1.2567569834960852       -1.2567569834960852      -1.2595162904243347      1.2584760048197208       -1.2577972691006982
2.8862490169098276        0.625322357199253        -2.569866627570869E-4    1.469354309788077E-4     1.2504614961341498       -1.2508279326628613      1.2520034161106925       1.2492860126863194       -1.2492860126863194      -1.2520034161106925      1.2508279326628613       -1.2504614961341498
2.906295831457877         0.6163243146015952       -1.6295155070507154E-4   1.943852875368417E-4     1.232937315701222        -1.2323599427051573      1.233915025005453        1.2313822334009275       -1.2313822334009275      -1.233915025005453       1.2323599427051573       -1.232937315701222