% Model:              Sphere_potential.mph
% Version:            COMSOL 6.2.0.278
% Date:               Oct 11 2024, 12:27
% Dimension:          1
% Nodes:              737
% Expressions:        11
% Description:        Line graph
% Arc length (m)          Magnetic scalar potential Magnetic scalar potential Magnetic scalar potential Magnetic scalar potential Magnetic scalar potential Magnetic scalar potential Magnetic scalar potential Magnetic scalar potential Magnetic scalar potential Magnetic scalar potential Magnetic scalar potential
0                         8.645312016606612E-6     2.2163235898259E-5       2.0976183541585383E-5    1.6768506589416934E-4    1.3310381782823816E-4    3.470565050532441E-5     -1.2440243889725753E-7   1.2440243888804181E-7    -3.470565050533395E-5    -1.3310381782823816E-4   -1.6768506589415373E-4
0.06917730781461583       0.013716957026324557     0.010303375385386263     0.015442920544186051     0.12011572238555233      0.06524789428025429      0.058295470073235454     -0.0034276419679372724   0.003427641967937271     -0.05829547007323548     -0.06524789428025429     -0.12011572238555233
0.07822692391142524       0.015510246686308356     0.011648339725965044     0.01746038371003391      0.13580704739064775      0.07376606064541448      0.06591700903485818      -0.003876022289624807    0.003876022289624807     -0.0659170090348582      -0.07376606064541448     -0.13580704739064775
0.07883693100457631       0.015631126887298348     0.011738999680930154     0.0175963747651431       0.13686475187795985      0.07434024432876658      0.0664307537923796       -0.0039062462431862497   0.0039062462431862497    -0.06643075379237963     -0.07434024432876658     -0.13686475187795985
0.08655511780425712       0.01716057818021736      0.012886085868629436     0.019317017733374825     0.15024748489982262      0.08160517217895327      0.07293096968804669      -0.004288656967177286    0.004288656967177286     -0.07293096968804672     -0.08160517217895327     -0.15024748489982262
0.1542119261622378        0.030567585270325996     0.022941320490074548     0.03439999108347816      0.26755909634478847      0.1452887552634844       0.12991117340434194      -0.007640832323037913    0.007640832323037913     -0.12991117340434194     -0.1452887552634844      -0.26755909634478847
0.20373720977869386       0.04038161476629076      0.03030182883863275      0.04544084027255309      0.3534320771386925       0.19190561807352924      0.1716211041068966       -0.010094645041733661    0.010094645041733685     -0.17162110410689663     -0.19190561807352924     -0.3534320771386925
0.251439721055615         0.049834438864860435     0.03739143291894052      0.05607533235614175      0.43614450591110976      0.23680675045166785      0.2117959083974671       -0.012458152938025536    0.01245815293802555      -0.2117959083974671      -0.23680675045166785     -0.43614450591110976
0.3347002438499458        0.06633350894024537      0.049765711050851605     0.0746368995950587       0.5805117494132805       0.3151777136522991       0.2819174831081712       -0.016583447347190056    0.016583447347190076     -0.2819174831081712      -0.3151777136522991      -0.5805117494132805
0.3648587101141162        0.07230977119804094      0.05424789911344026      0.08136023493239886      0.6328041794659983       0.34356509467383467      0.307316784785357        -0.018077699993193575    0.0180776999931936       -0.307316784785357       -0.34356509467383467     -0.6328041794659983
0.45038738372309317       0.08925830574488132      0.06695927635850923      0.10042745067376294      0.781104243260342        0.42407102028081717      0.37934858510928704      -0.0223153621297619      0.02231536212976193      -0.37934858510928704     -0.42407102028081717     -0.781104243260342
0.4665924756060821        0.09246953931641998      0.06936769710533344      0.10404011019942658      0.8092026107465464       0.43932445348086685      0.3929964281145463       -0.023118270848866442    0.023118270848866473     -0.3929964281145463      -0.43932445348086685     -0.8092026107465464
0.6110410816285438        0.12109376510638382      0.09083582510409188      0.13624256166985843      1.0596652522044767       0.5752901917789415       0.5146503015799263       -0.0302752411543905      0.030275241154390536     -0.5146503015799263      -0.5752901917789415      -1.0596652522044767
0.6116034088367766        0.12120519699499474      0.0909193988596022       0.1363679233132294       1.0606402838217133       0.5758194958417345       0.515123890664101        -0.0303031026841216      0.030303102684121636     -0.515123890664101       -0.5758194958417345      -1.0606402838217133
0.6117295152122135        0.12123018649219987      0.09093814094646495      0.1363960366665412       1.0608589424899593       0.5759381965211599       0.5152300968111703       -0.03030935084237039     0.030309350842370426     -0.5152300968111703      -0.5759381965211599      -1.0608589424899593
0.6128544225249468        0.1214531004207547       0.09110532609915885      0.1366468163568408       1.062809444566349        0.5769970428833303       0.5161774879713967       -0.030365086288377405    0.03036508628837744      -0.5161774879713967      -0.5769970428833303      -1.062809444566349
0.7108685795248937        0.14087578569354833      0.10567231431680527      0.1584974696879762       1.2327583930894168       0.6692552503152237       0.5987245071885865       -0.03522136441439246     0.035221364414392484     -0.5987245071885865      -0.6692552503152237      -1.2327583930894168
0.7217280576972918        0.14302772201988423      0.10728626357175082      0.1609184129884223       1.2515878867087098       0.6794769986291729       0.6078703052782061       -0.03575941719866841     0.03575941719866843      -0.6078703052782061      -0.6794769986291729      -1.2515878867087098
0.7998616302312337        0.15851082781629197      0.11889856953342078      0.17833701395687296      1.3870654200603374       0.7530221087951698       0.6736740028598145       -0.03963069159464545     0.03963069159464547      -0.6736740028598145      -0.7530221087951698      -1.3870654200603374
0.9202758520124779        0.18237235551797704      0.13679467844883988      0.20518139773699695      1.5958543373304603       0.8663649152585532       0.775086266637423        -0.04559684456551408     0.04559684456551407      -0.775086266637423       -0.8663649152585532      -1.5958543373304603
0.9297765086227635        0.1842550248685324       0.13820667774063194      0.2072994138536037       1.6123277383733745       0.8753076388992456       0.7830876719295846       -0.04606757245545418     0.046067572455454175     -0.7830876719295846      -0.8753076388992456      -1.6123277383733745
0.9346461038794954        0.18521999386785873      0.1389304030463431       0.20838501055979702      1.6207712391139335       0.8798912636424998       0.7871888208358772       -0.046308845364441395    0.04630884536444138      -0.7871888208358772      -0.8798912636424998      -1.6207712391139335
0.9414632733545178        0.18657089817504033      0.1399435792555104       0.20990478711975127      1.6325916825956153       0.8863080898954555       0.7929302070625553       -0.04664661436239332     0.046646614362393306     -0.7929302070625553      -0.8863080898954555      -1.6325916825956153
0.9522194234191524        0.1887023591319419       0.1415421720547437       0.21230269599678478      1.6512420184152528       0.8964325818874864       0.8019889860867927       -0.04717954955902441     0.04717954955902439      -0.8019889860867927      -0.8964325818874864      -1.6512420184152528
0.9595616552381812        0.19015731069752015      0.14263338360296193      0.2139395268454435       1.6639728795856987       0.9033436367956194       0.8081725779679291       -0.04754333517784779     0.047543335177847784     -0.8081725779679291      -0.9033436367956194      -1.6639728795856987
0.9990873832816048        0.19798980812581995      0.14850774161447308      0.2227511422036067       1.732507409909485        0.9405481774062061       0.8414609602226482       -0.049501727719367526    0.049501727719367526     -0.8414609602226482      -0.9405481774062061      -1.732507409909485
1.1926910351877749        0.2363546956126617       0.17728134129288128      0.2659119107113761       2.0682010579494716       1.122782275498825        1.0045130101921842       -0.059094227741537136    0.05909422774153712      -1.0045130101921842      -1.122782275498825       -2.0682010579494716
1.310775440769866         0.2597545305386956       0.19483115816041563      0.2922368867388599       2.272950082514078        1.2339319603592958       1.103963133551584        -0.06494501139680124     0.0649450113968012       -1.103963133551584       -1.2339319603592958      -2.272950082514078
1.395647716595712         0.2765729938031989       0.20744495548607458      0.3111577697602135       2.420111933105476        1.3138199578926808       1.175442200189028        -0.06915022497623217     0.06915022497623213      -1.175442200189028       -1.3138199578926808      -2.420111933105476
1.4071917636432436        0.27886058602654823      0.20916064272300294      0.31373132746067234      2.4401284100647946       1.3246860659586028       1.1851645537267768       -0.06972220962058365     0.0697222096205836       -1.1851645537267768      -1.3246860659586028      -2.4401284100647946
1.4306130347250425        0.2835017935135826       0.21264153427708546      0.3189527192567138       2.4807390668852776       1.346731892830948        1.2048898612227639       -0.07088268716843342     0.07088268716843339      -1.2048898612227639      -1.346731892830948       -2.4807390668852776
1.4653419590353542        0.29038374563924685      0.21780296982398223      0.3266949532176988       2.540956213621236        1.3794212310642497       1.2341383946773423       -0.07260341212035469     0.07260341212035468      -1.2341383946773423      -1.3794212310642497      -2.540956213621236
1.504367156072365         0.2981170556405468       0.22360292024604805      0.3353949694673921       2.6086227498888066       1.4161545273266207       1.2670052284125182       -0.07453700585033053     0.07453700585033052      -1.2670052284125182      -1.4161545273266207      -2.6086227498888066
1.5447215879969187        0.3061137700074526       0.22960042406008485      0.344391319156232        2.6785940888200885       1.454139008790279        1.300991544459579        -0.07653646442976805     0.07653646442976801      -1.300991544459579       -1.454139008790279       -2.6785940888200885
1.5536117916787373        0.30787546763519263      0.2309216909218237       0.34637324210205317      2.69400897644407         1.4625071059033001       1.3084788309131272       -0.07697696037235616     0.07697696037235614      -1.3084788309131272      -1.4625071059033001      -2.69400897644407
1.5606408640550364        0.3092683509216587       0.2319663377944316       0.34794023545458885      2.706196657044969        1.4691232533583347       1.3143986302783786       -0.07732522659174319     0.07732522659174318      -1.3143986302783786      -1.4691232533583347      -2.706196657044969
1.618147628021161         0.3206640232852529       0.24051303129484944      0.36076043035016786      2.805908861855726        1.5232527687147157       1.3628306740866294       -0.08017458094561741     0.08017458094561741      -1.3628306740866294      -1.5232527687147157      -2.8059088618557264
1.6555166028575585        0.328069145125352        0.24606683318395678      0.36909123367502217      2.870703724502664        1.5584271440012565       1.3943027253989229       -0.0820261448975141      0.08202614489751407      -1.3943027253989229      -1.5584271440012565      -2.8707037245026648
1.6748528644288498        0.3319008868499544       0.24894062893837438      0.3734019743007347       2.9042315577179716       1.5766280103181545       1.410587784087725        -0.0829842366879067      0.08298423668790668      -1.410587784087725       -1.5766280103181545      -2.9042315577179725
1.6996626788603595        0.33681724103386707      0.2526278447532472       0.3789328695062363       2.947249494352421        1.5999805302169534       1.4314824258329375       -0.08421346169746889     0.08421346169746886      -1.4314824258329375      -1.5999805302169534      -2.947249494352422
1.706570554540431         0.3381861194194936       0.2536544944715343       0.38047286376735223      2.9592271773229992       1.6064826996450254       1.437300210493793        -0.08455573281581832     0.08455573281581831      -1.437300210493793       -1.6064826996450254      -2.959227177323
1.7214588302531149        0.34113640158936714      0.25586717251691615      0.3837919246437876       2.9850420193046334       1.6204964129471655       1.449838984203136        -0.08529337784566722     0.08529337784566719      -1.449838984203136       -1.6204964129471655      -2.9850420193046343
1.7932290746261912        0.3553584928496714       0.2665335704950707       0.39979175627431235      3.109484722281805        1.6880507508831197       1.51028329931138         -0.08884932791269404     0.08884932791269404      -1.51028329931138        -1.6880507508831197      -3.1094847222818056
1.874621849930953         0.37148739819791643      0.2786300561839612       0.4179367509332109       3.250611968680561        1.764662375888895        1.5788316315767923       -0.09288203878512688     0.09288203878512688      -1.5788316315767923      -1.764662375888895       -3.250611968680561
1.9502988545588167        0.38648362407569664      0.2898769751084374       0.43480741019745783      3.3818278142665386       1.835893317963751        1.6425659636159122       -0.09663146731312565     0.09663146731312565      -1.6425659636159122      -1.835893317963751       -3.3818278142665386
1.9679533481264748        0.3899820680146748       0.292500751802607        0.4387431257853036       3.4124388945783872       1.8525106225196868       1.657434383762743        -0.09750611170404376     0.09750611170404376      -1.657434383762743       -1.8525106225196868      -3.4124388945783872
1.9971230425425222        0.3957623833910731       0.296835895379032        0.4452459246657112       3.4630161515820888       1.8799666180177952       1.682000779307895        -0.09895124574360223     0.09895124574360223      -1.682000779307895       -1.8799666180177952      -3.4630161515820888
2.0085752663638345        0.398031755883578        0.29853780881712494      0.44779890951674167      3.4828725762854997       1.8907455527511863       1.6916457233827478       -0.09951869984843549     0.09951869984843549      -1.6916457233827478      -1.8907455527511863      -3.4828725762854997
2.019948203573234         0.4002854169423116       0.30022793948251075      0.4503342194146569       3.5025915299907844       1.9014498622215372       1.7012238930957189       -0.1000822253264718      0.1000822253264718       -1.7012238930957189      -1.9014498622215372      -3.5025915299907844
2.0743274532874394        0.4110611489000968       0.30830941036888565      0.4624565386630237       3.5968766835589463       1.9526320879585581       1.7470202213456316       -0.10277562574524385     0.10277562574524385      -1.7470202213456316      -1.9526320879585581      -3.5968766835589463
2.10669269842916          0.41747461006824677      0.3131193109783616       0.46967145678384314      3.6529929802069514       1.9830945399339637       1.7742771143367813       -0.10437867406379385     0.10437867406379385      -1.7742771143367813      -1.9830945399339637      -3.6529929802069514
2.1255788094237262        0.42121707968914324      0.3159260537279883       0.47388167981930857      3.685739039839486        2.000870721082913        1.790182717471556        -0.10531439871498274     0.10531439871498274      -1.790182717471556       -2.000870721082913       -3.6857390398394863
2.168559965180606         0.42973320709940477      0.3223119882891928       0.48346063266739525      3.76024490973597         2.0413120813383503       1.826372980000813        -0.10744015160319315     0.10744015160319315      -1.826372980000813       -2.0413120813383503      -3.76024490973597
2.1738718755798487        0.43078568940136325      0.32310120653163404      0.4846444663347683       3.7694528637367024       2.046310106131249        1.830845624546898        -0.10770286694144451     0.10770286694144451      -1.830845624546898       -2.046310106131249       -3.7694528637367024
2.183179862143166         0.43262992632696895      0.3244840463410707       0.48671870158841296      3.7855867980308027       2.0550670927229264       1.8386825199843781       -0.10816281467650155     0.10816281467650155      -1.8386825199843781      -2.0550670927229264      -3.7855867980308027
2.2090387136200693        0.4377555700054181       0.3283297718011893       0.4924869318042747       3.830448182631504        2.079425902609831        1.8604695518243681       -0.10944727180269494     0.10944727180269494      -1.8604695518243681      -2.079425902609831       -3.830448182631504
2.260699392824148         0.44799430672440477      0.3360096097798494       0.5040060504012489       3.920041644393354        2.1280644174957346       1.903983985714257        -0.11200675881663728     0.11200675881663727      -1.9039839857142573      -2.1280644174957346      -3.920041644393354
2.278306222956188         0.4514832172257134       0.33862392900530863      0.5079287053247876       3.9505530427665043       2.1446201738636503       1.9188094687346515       -0.11287659983179714     0.11287659983179713      -1.918809468734652       -2.1446201738636503      -3.9505530427665043
2.3086014511953596        0.4574864182079759       0.34312226272190527      0.5146782295333426       4.0030525427150385       2.173106869883135        1.9443189663836067       -0.1143732935517023      0.1143732935517023       -1.944318966383607       -2.173106869883135       -4.0030525427150385
2.327910616496066         0.461313603791069        0.34599267242602444      0.5189837864525491       4.036540370670409        2.1912859555061326       1.960584336114261        -0.11532992094998445     0.11532992094998445      -1.9605843361142614      -2.1912859555061326      -4.036540370670409
2.345462611177179         0.46479172303730965      0.3486027036383502       0.5228981125823684       4.066984007319144        2.207817115169906        1.9753677854890426       -0.11620089333980327     0.11620089333980327      -1.975367785489043       -2.207817115169906       -4.066984007319144
2.3615786396705922        0.4679853876060246       0.3509998224183887       0.5264923381782068       4.094939595180042        2.2229980447559443       1.9889406606697106       -0.11699911024561126     0.11699911024561126      -1.9889406606697109      -2.2229980447559443      -4.094939595180042
2.3920359739091817        0.47402102531013074      0.3555300854371635       0.533284987517719        4.147772257002629        2.251688155762105        2.014591744379647        -0.11850764313912311     0.11850764313912311      -2.014591744379647       -2.251688155762105       -4.147772257002629
2.4092467898004477        0.477431652852801        0.35809039243578855      0.5371230116569408       4.1776265296407304       2.267899918229527        2.0290841750259996       -0.11935756361479469     0.11935756361479469      -2.0290841750259996      -2.267899918229527       -4.1776265296407304
2.437401920231175         0.4830098184927628       0.3622801546893879       0.5434025692249533       4.226470377953502        2.2944311039824514       2.0527894498171753       -0.12075017584612306     0.12075017584612306      -2.0527894498171753      -2.2944311039824514      -4.226470377953502
2.4781133266660857        0.4910752412719025       0.36833830494885655      0.5524822744614423       4.297094495236143        2.3327935301485336       2.087064665543004        -0.12276370045539342     0.12276370045539342      -2.087064665543004       -2.3327935301485336      -4.297094495236143
2.499615757293451         0.49533807111285477      0.37153435217134484      0.5572772966475967       4.334388385330131        2.353036100878712        2.1051822723020615       -0.12382998785064195     0.12382998785064195      -2.1051822723020615      -2.353036100878712       -4.334388385330131
2.516305304584403         0.4889364001777896       0.366771899071198        0.5504549664980442       4.2800083635613495       2.324262762850191        2.0793769691341613       -0.12363136842300232     0.12363136842300232      -2.0793769691341613      -2.324262762850191       -4.2800083635613495
2.518839653096508         0.4879534452682082       0.3660499022726861       0.5494223447285491       4.271745976268671        2.3199321951958383       2.0754465626325542       -0.12363278155972099     0.12363278155972099      -2.0754465626325542      -2.3199321951958383      -4.271745976268671
2.5196677817168167        0.48764675415266023      0.36581889211847535      0.5490703710364021       4.269031668806354        2.318444652195714        2.0741183160955026       -0.12353129948486088     0.12353129948486088      -2.0741183160955026      -2.318444652195714       -4.269031668806354
2.549918107603736         0.4756069729715609       0.35709097227474973      0.5358398587965317       4.1658462979534985       2.2634184060672546       2.023300464304999        -0.12087257241875515     0.12087257241875515      -2.023300464304999       -2.2634184060672546      -4.1658462979534985
2.5623834502936766        0.4713524299529035       0.3535720145755644       0.5303553903595624       4.124842465070749        2.239432745259136        2.003410377617363        -0.11800065780574814     0.11800065780574814      -2.003410377617363       -2.239432745259136       -4.124842465070749
2.5789259066118815        0.4651487496809913       0.34923820504794717      0.523839486914312        4.073370062163072        2.2127750634391075       1.9779408318753888       -0.11734583315142315     0.11734583315142315      -1.9779408318753888      -2.2127750634391075      -4.073370062163072
2.583451338377728         0.4634516418738049       0.348052627832197        0.5220569658746843       4.059289030742939        2.205482463247719        1.9709732637497557       -0.11716669625453562     0.11716669625453562      -1.9709732637497557      -2.205482463247719       -4.059289030742939
2.6189501198268244        0.45121953385000435      0.3386445992880324       0.5077730341126416       3.9494650020146724       2.1445868666146555       1.9175974062864776       -0.11271927088645964     0.11271927088645964      -1.9175974062864776      -2.1445868666146555      -3.9494650020146724
2.627694068562656         0.44823241132443         0.33619278676120123      0.5041953216957389       3.9218244697154194       2.1288948244177          1.9046677491482118       -0.11173810385049136     0.11173810385049136      -1.9046677491482118      -2.1288948244177         -3.9218244697154194
2.6348800241993047        0.44589841589127654      0.3344285287718758       0.5016855524503605       3.901824627899622        2.1182309643345167       1.8952534552683673       -0.11165979170326068     0.11165979170326068      -1.8952534552683673      -2.1182309643345167      -3.901824627899622
2.6514127641329446        0.4403367156772121       0.33021968025874804      0.49570452867742487      3.854150586840368        2.09280372413152         1.8728325052878794       -0.1114856425790306      0.1114856425790306       -1.8728325052878794      -2.09280372413152        -3.854150586840368
2.673358614929663         0.43316342422233467      0.3250278473011121       0.48757165985620726      3.791697029772834        2.059043332883496        1.8415299459661618       -0.1088762490768227      0.1088762490768227       -1.8415299459661618      -2.059043332883496       -3.791697029772834
2.6928839156849573        0.42682954326515865      0.32015043996111203      0.4802163497619572       3.7349758054614823       2.0276576324008473       1.81407316569481         -0.10675499263417464     0.10675499263417464      -1.81407316569481        -2.0276576324008473      -3.7349758054614823
2.707953797574703         0.42241117474945744      0.3166967175145502       0.47501123210950014      3.6949574304805664       2.005312731482736        1.7947771253932645       -0.1051324263954346      0.1051324263954346       -1.794777125393265       -2.005312731482736       -3.6949574304805664
2.7224535066583986        0.4179515027076366       0.3133750844155131       0.4700456196129724       3.6562107371137023       1.984404726283156        1.775960230620623        -0.1041542197900763      0.1041542197900763       -1.7759602306206235      -1.984404726283156       -3.6562107371137023
2.756084822231742         0.4076075270508593       0.3056707304641501       0.4585281415779504       3.56633981180597         1.935909703602534        1.7323154290210698       -0.10188532081763221     0.10188532081763221      -1.7323154290210698      -1.935909703602534       -3.56633981180597
2.76243089878941          0.40566178453139584      0.3042589319000915       0.45630376046018384      3.5493154066038017       1.9266682684782186       1.7237618152032523       -0.10111467707766852     0.10111467707766852      -1.7237618152032523      -1.9266682684782186      -3.5493154066038017
2.770304262346395         0.4034550428919121       0.3026326843505463       0.45378079856382364      3.529931333090758        1.91611116152311         1.7141352269874799       -0.10031505541983116     0.10031505541983116      -1.7141352269874799      -1.91611116152311        -3.529931333090758
2.7954110017723357        0.39633850039846286      0.2973260186962202       0.44573369549844144      3.467589838879353        1.882235837285501        1.6836337267020305       -0.09827972510817878     0.09827972510817878      -1.6836337267020305      -1.882235837285501       -3.467589838879353
2.8084814656358104        0.3926336580485479       0.2945633906825346       0.44154440719471777      3.4351351169235707       1.8646004847293796       1.6677547728283626       -0.0972201406341709      0.0972201406341709       -1.6677547728283626      -1.8646004847293796      -3.4351351169235707
2.8145592287861776        0.3908435016698719       0.2932601899797169       0.43956524041212897      3.41972853492741         1.8563545282479232       1.6601673950491085       -0.0967933883696209      0.0967933883696209       -1.6601673950491085      -1.8563545282479232      -3.41972853492741
2.8287480673996788        0.38675419539122685      0.29013917536970724      0.4350788387505415       3.384241271893741        1.8372244903288342       1.6434062196754975       -0.09638943811058999     0.09638943811058999      -1.6434062196754975      -1.8372244903288342      -3.384241271893741
2.829165978968608         0.3866421947595523       0.29005436111948396      0.43495923881376386      3.383284428132612        1.8367156490944032       1.6429582614157079       -0.09638948237749845     0.09638948237749845      -1.6429582614157079      -1.8367156490944032      -3.383284428132612
2.8424106887608716        0.3831480009989128       0.28736776400676306      0.4311188913153396       3.352874859279473        1.8202828552838222       1.6286682752388941       -0.09607627124324303     0.09607627124324303      -1.6286682752388941      -1.8202828552838222      -3.352874859279473
2.844926578356225         0.3824842638642811       0.2868574333291704       0.4303894007892825       3.3470984308732037       1.8171613754160794       1.6259538308981805       -0.09601677544105612     0.09601677544105612      -1.6259538308981805      -1.8171613754160794      -3.3470984308732037
2.852765355380238         0.3804463362953001       0.28532113258272257      0.4279216770984578       3.3285427787325985       1.8067574335513985       1.616615983236263        -0.09483063805506264     0.09483063805506264      -1.616615983236263       -1.8067574335513985      -3.3285427787325985
2.8744941265333606        0.3747096149861009       0.2810792496966717       0.42114097782272664      3.277220890353123        1.77838243040872         1.5907453921730932       -0.09190693222868915     0.09190693222868915      -1.5907453921730932      -1.77838243040872        -3.277220890353123
2.877191470251037         0.3739966206050432       0.2805550809927151       0.4203725352595864       3.271148625226577        1.7751621428064046       1.5878181392702861       -0.09183165685011327     0.09183165685011326      -1.5878181392702861      -1.7751621428064046      -3.271148625226577
2.883833485589279         0.37224092310752704      0.2792643531745693       0.4184803005927594       3.2561961081098          1.767232415679692        1.5806099890623835       -0.09164629663227508     0.09164629663227508      -1.5806099890623835      -1.767232415679692       -3.2561961081098
2.9262844282417353        0.3612282129990432       0.2708337513999118       0.4065913656800589       3.161323142918057        1.716410290921885        1.536320634518586        -0.09140778252241313     0.09140778252241313      -1.536320634518586       -1.716410290921885       -3.161323142918057
2.9461415671439255        0.3562582581808427       0.26726254720110737      0.40108060896739484      3.1186265938345867       1.6935935611112165       1.5150513106279426       -0.09001827790457148     0.09001827790457148      -1.5150513106279426      -1.6935935611112165      -3.1186265938345867
2.9491089362433547        0.3555155685906792       0.26672888114581694      0.40025710416823024      3.1122461972917304       1.6901839229290143       1.511872910416828        -0.08981063605411123     0.08981063605411123      -1.511872910416828       -1.6901839229290143      -3.1122461972917304