% Model:              Sphere_potential.mph
% Version:            COMSOL 6.2.0.278
% Date:               Oct 11 2024, 12:27
% Dimension:          1
% Nodes:              762
% Expressions:        11
% Description:        Line graph
% Arc length (m)          Magnetic scalar potential Magnetic scalar potential Magnetic scalar potential Magnetic scalar potential Magnetic scalar potential Magnetic scalar potential Magnetic scalar potential Magnetic scalar potential Magnetic scalar potential Magnetic scalar potential Magnetic scalar potential
0                         8.645312016610299E-6     2.21632358982603E-5      2.097618354158365E-5     1.6768506589417455E-4    1.3310381782822775E-4    3.47056505053217E-5      -1.2440243889362546E-7   1.244024388814824E-7     -3.470565050533157E-5    -1.3310381782822775E-4   -1.676850658941572E-4
0.014038898501381777      0.0027906127224063227    -0.00206430012462264     -0.0031087671659800857   -0.013046743592975783    -0.024209194482600525    -6.609428452392409E-4    0.011823393734864511     -0.011823393734864525    6.609428452392322E-4     0.024209194482600525     0.013046743592975805
0.02871710291219467       0.005699265993519433     -0.0042457771369631084   -0.00638103295591514     -0.026862931247511154    -0.04965999522158828     -0.001388268425731783    0.024185332399809495     -0.024185332399809502    0.0013882684257317725    0.04965999522158828      0.02686293124751118
0.0477460448059501        0.00947006705797777      -0.007073861688038201    -0.010623224783497134    -0.04477435008214772     -0.08265461831405824     -0.0023311799539178293   0.04021144818582886      -0.04021144818582886     0.0023311799539178224    0.08265461831405824      0.04477435008214773
0.06173176396294551       0.012241495986316995     -0.009152421974834603    -0.013741112642453028    -0.057938724521682076    -0.1069047084669495      -0.003024192672673811    0.05199017661794171      -0.05199017661794171     0.0030241926726738057    0.1069047084669495       0.05793872452168208
0.08101526066908406       0.01606273964286471      -0.012018338985895148    -0.018040053553776303    -0.07608975188706141     -0.1403407104585197      -0.003979717971689943    0.06823067654314866      -0.06823067654314867     0.003979717971689931     0.1403407104585197       0.07608975188706142
0.10143138548234316       0.020108426911839727     -0.015052587122343544    -0.022591495209210326    -0.09530688838019269     -0.17574059602755102     -0.004991365646130759    0.08542507329348956      -0.08542507329348957     0.004991365646130744     0.17574059602755102      0.09530688838019269
0.11056442283389523       0.02191824210831869      -0.01640994077380942     -0.024627556754812378    -0.10390356512404063     -0.1915765335573148      -0.005443920481183416    0.09311688891445807      -0.09311688891445807     0.005443920481183393     0.1915765335573148       0.10390356512404063
0.16210264688657722       0.03213112596959304      -0.024069562123246662    -0.036117163227282645    -0.15241508733968478     -0.2809395912180563      -0.007997714600203999    0.1365222184785761       -0.1365222184785761      0.007997714600203973     0.2809395912180563       0.15241508733968478
0.2597464937991682        0.05148036217934098      -0.03858141171399377     -0.057885266140105       -0.2443245753437197      -0.45024602406108283     -0.012836105059756093    0.21875755377711997      -0.21875755377711997     0.012836105059756062     0.45024602406108283      0.24432457534371968
0.34133362628565356       0.06764777928041374      -0.050706909864276756    -0.07607378735416842     -0.32112032044867694     -0.5917114375703311      -0.016878861263015243    0.2874699783846702       -0.2874699783846702      0.016878861263015226     0.5917114375703311       0.3211203204486769
0.3633004837294498        0.07200076161806959      -0.05397162920401337     -0.08097094013360921     -0.3417971249103382      -0.6298001713826158      -0.01796734968625683     0.3059703961585353       -0.3059703961585353      0.017967349686256816     0.6298001713826158       0.3417971249103382
0.3707735858614901        0.0734816416078587       -0.055082283378693774    -0.08263694634106108     -0.3488313522846087      -0.6427579187160427      -0.018337652012444867    0.3122642184438797       -0.3122642184438797      0.01833765201244485      0.6427579187160427       0.34883135228460865
0.38803853944384165       0.07690288771367526      -0.05764820480365779     -0.08648588587771822     -0.3650823824944961      -0.6726939333491964      -0.019193153672548216    0.3268047045272493       -0.3268047045272493      0.0191931536725482       0.6726939333491964       0.3650823824944961
0.5077729687334075        0.10062962004683107      -0.07544316562589404     -0.11317872262940808     -0.47778514730165256     -0.8803036274889764      -0.025126153546287198    0.42764463373361156      -0.4276446337336116      0.025126153546287187     0.8803036274889764       0.47778514730165256
0.5703897109293323        0.113037836140145        -0.08474928300438328     -0.12713810396684597     -0.5367245926002441      -0.9888759371608234      -0.028228894573943123    0.4803802391345231       -0.4803802391345231      0.02822889457394312      0.9888759371608234       0.5367245926002441
0.5872196163009069        0.1163728723503994       -0.0872505480921271      -0.130890057025407       -0.5525661276772107      -1.0180576170788078      -0.029062839124446904    0.4945543285260445       -0.4945543285260445      0.029062839124446904     1.0180576170788078       0.5525661276772107
0.5889719470574438        0.1167201165206051       -0.08751097996305776     -0.13128071060285984     -0.5542155492594028      -1.0210960153418225      -0.02914966948105498     0.49603013556347525      -0.49603013556347525     0.02914966948105498      1.0210960153418225       0.5542155492594028
0.5902871087866909        0.11698073067299722      -0.0877064396559419      -0.1315739044558376      -0.555453475445182       -1.0233763981371702      -0.029214837509529454    0.49713776020151823      -0.49713776020151823     0.029214837509529454     1.0233763981371702       0.555453475445182
0.6759455881780485        0.13395492594140335      -0.10043702609441724     -0.1506700650682248      -0.6360814866733446      -1.1719011904389576      -0.033459330106840136    0.5692790338724534       -0.5692790338724534      0.03345933010684013      1.1719011904389576       0.6360814866733446
0.7821839341961362        0.15500725466054396      -0.11622620002553725     -0.17435417018510505     -0.7360807714959442      -1.3561097901381194      -0.03872357134272001     0.6587525899848955       -0.6587525899848955      0.03872357134271998      1.3561097901381194       0.7360807714959442
0.8109115280159905        0.1606999524744785       -0.12049570342551584     -0.18075851850047103     -0.7631212793294747      -1.405921089227388       -0.04014705877637907     0.6829468686742928       -0.6829468686742928      0.040147058776379044     1.405921089227388        0.7631212793294747
0.8404039546446003        0.16654421210942794      -0.12487887910757604     -0.18733337751571202     -0.7908817231667205      -1.4570585716044322      -0.04160844852126362     0.7077852969589749       -0.7077852969589749      0.0416084485212636       1.4570585716044322       0.7908817231667205
0.8473184574830244        0.16791439920137624      -0.12590651458396057     -0.18887485311233715     -0.7973901577984779      -1.4690477546039828      -0.04195107029471371     0.7136086671002181       -0.7136086671002181      0.0419510702947137       1.4690477546039828       0.7973901577984779
0.9079928324891704        0.17993770365402656      -0.13492395034781174     -0.20240119832128778     -0.8545012370205332      -1.5742520516366378      -0.04495753493366224     0.7647083495497683       -0.7647083495497683      0.04495753493366219      1.5742520516366378       0.8545012370205332
0.9689790218224944        0.19202280443653164      -0.14398773360218045     -0.2159970721715734      -0.911905880619772       -1.6799970983658967      -0.04797947900668878     0.8160706967528153       -0.8160706967528153      0.04797947900668874      1.6799970983658967       0.911905880619772
0.9762042287000934        0.19345456055504526      -0.14506154598988263     -0.21760781392434603     -0.9187067725569417      -1.6925250147771211      -0.04833749661764537     0.8221557388378264       -0.8221557388378264      0.04833749661764534      1.6925250147771211       0.9187067725569417
0.9941830186745907        0.1970172591843345       -0.14773355919955386     -0.2216158869939694      -0.9356297072058706      -1.723698743943207       -0.049228352008546666    0.8372973887458846       -0.8372973887458846      0.049228352008546625     1.723698743943207        0.9356297072058706
1.043992161601992         0.20688749881031826      -0.15513620910275694     -0.23272000938883156     -0.9825136672429609      -1.8100636624842323      -0.05169641262641855     0.8792464078676916       -0.8792464078676916      0.05169641262641851      1.8100636624842323       0.9825136672429609
1.0555536908659726        0.2091785453980783       -0.15685448649789374     -0.2352974612035745      -0.9933962135118228      -1.8301103951041346      -0.05226929452445986     0.888983476116773        -0.888983476116773       0.05226929452445981      1.8301103951041346       0.9933962135118228
1.1170715580120352        0.22136900017211528      -0.16599728742851327     -0.24901185267328393     -1.0513012726344453      -1.936777273322905       -0.055317548063365314    0.9407935487518263       -0.9407935487518263      0.05531754806336528      1.936777273322905        1.0513012726344453
1.1430808909117205        0.22652303605230278      -0.16986280021910632     -0.2548102042775042      -1.0757831456627307      -1.9818752898719398      -0.0566063443480922      0.9626984885573031       -0.9626984885573031      0.05660634434809216      1.9818752898719398       1.0757831456627307
1.2143572233401527        0.24064722856103588      -0.1804559086652796      -0.2707000905799124      -1.1428736311934171      -2.105462545437559       -0.06013817920173882     1.022727093445882        -1.0227270934458823      0.060138179201738806     2.105462545437559        1.1428736311934171
1.2708535487338875        0.2518425979412665       -0.18885240479418208     -0.28329500477864245     -1.1960520376145838      -2.203422429379648       -0.06293760884949073     1.0703080006145562       -1.0703080006145567      0.06293760884949072      2.203422429379648        1.1960520376145838
1.2817995122653336        0.25401166166222877      -0.19047919630441182     -0.2857352240870444      -1.2063551619369561      -2.2224018085858694      -0.06347998411048471     1.0795266307593991       -1.0795266307593996      0.0634799841104847       2.2224018085858694       1.2063551619369561
1.2864289772082318        0.25492904133613864      -0.19116722840358497     -0.2867672857880336      -1.2107127456906128      -2.230428911035166       -0.06370937526910254     1.0834255406136566       -1.083425540613657       0.06370937526910253      2.230428911035166        1.2107127456906128
1.3323008442112108        0.2640190504076695       -0.1979847139234827      -0.29699365197940597     -1.2538906488727335      -2.3099668505034106      -0.06598236533183685     1.1220585669625143       -1.1220585669625145      0.06598236533183684      2.3099668505034106       1.2538906488727335
1.4347014099790358        0.2843108377945933       -0.2132035026581871      -0.31982215016575366     -1.3502774330483898      -2.4875207842267626      -0.07105641709926684     1.20829976827764         -1.20829976827764        0.07105641709926684      2.4875207842267626       1.3502774330483898
1.4604426250925977        0.28941174246296947      -0.21702916812881826     -0.3255607282216722      -1.374506932347205       -2.5321539021990827      -0.07233192357429544     1.2299788934261726       -1.229978893426173       0.07233192357429544      2.5321539021990827       1.374506932347205
1.4879615975914615        0.2948649137187177       -0.2211190343777772      -0.3316956181830678      -1.4004097484281677      -2.5798694033030385      -0.07369554216150451     1.2531551970363748       -1.253155197036375       0.07369554216150451      2.5798694033030385       1.4004097484281677
1.4886377282368088        0.2949988960876168       -0.2212195206937121      -0.33184635008077756     -1.4010461702290133      -2.5810417545794806      -0.07372904606674084     1.2537246304172074       -1.2537246304172078      0.07372904606674084      2.5810417545794806       1.4010461702290133
1.491306424671878         0.29552772564005897      -0.22161614245744515     -0.33244128984295923     -1.403558135464055       -2.5856690380242906      -0.07386128071938387     1.2559721832796191       -1.2559721832796193      0.07386128071938387      2.5856690380242906       1.403558135464055
1.5142612521612397        0.300076455378946        -0.2250276892504674      -0.33755866712912536     -1.4251648255100118      -2.6254706470257956      -0.07499869000720744     1.2753045115229908       -1.275304511522991       0.07499869000720742      2.6254706470257956       1.4251648255100118
1.6629233682133582        0.32953534757256153      -0.24712185508536832     -0.3707002856558194      -1.5650960127342604      -2.8832374030245056      -0.08236488222204968     1.4005062725122954       -1.4005062725122954      0.08236488222204967      2.8832374030245056       1.56509601273426
1.6816703033617229        0.33325023383934255      -0.2499080183519669      -0.3748795967157541      -1.5827419742402327      -2.915742909597602       -0.08329386412843065     1.4162947994858004       -1.4162947994858004      0.08329386412843065      2.915742909597602        1.5827419742402324
1.713755348183446         0.33960818052057334      -0.2546764812164242      -0.3820324063360032      -1.612942707952139       -2.971375430034432       -0.0848838206535933      1.4433165427358863       -1.4433165427358865      0.08488382065359329      2.971375430034432        1.6129427079521388
1.7508179399113537        0.34695246514332645      -0.26018470538372535     -0.39029484401587905     -1.6478285619280395      -3.0356384225013446      -0.08672032962568717     1.4745301901989927       -1.474530190198993       0.08672032962568715      3.0356384225013446       1.6478285619280395
1.7986009211397467        0.3564210909977007       -0.26728618856979575     -0.4009471995623205      -1.692805181963268       -3.1184895459540702      -0.08908805054449326     1.5147724145352957       -1.514772414535296       0.08908805054449323      3.1184895459540702       1.692805181963268
1.8651827489990076        0.36961479705878886      -0.27718149433884576     -0.415790333753854       -1.7554762239143753      -3.2339354121495307      -0.09238725788130124     1.5708464461164564       -1.5708464461164566      0.09238725788130121      3.2339354121495307       1.7554762239143753
2.013348894277877         0.39897498498890926      -0.2992018478576178      -0.4488215008506702      -1.8949415769977158      -3.4908415169533527      -0.0997304898520095      1.6956304298076463       -1.6956304298076466      0.09973048985200948      3.4908415169533527       1.8949415769977158
2.0135827603863934        0.3990213273633434       -0.2992366049026556      -0.4488736377705737      -1.8951617110635754      -3.4912470205169486      -0.09974208164764183     1.695827391101015        -1.6958273911010153      0.09974208164764181      3.4912470205169486       1.8951617110635754
2.0244277533901185        0.401170346431147        -0.3008483814557337      -0.4512913653121037      -1.9053699127533221      -3.5100512984779098      -0.10027962401891993     1.7049610097435077       -1.704961009743508       0.10027962401891993      3.5100512984779098       1.9053699127533221
2.048695194636291         0.40597913425609616      -0.30445499772389834     -0.4567014347201798      -1.9282124635402225      -3.552129000564607       -0.10148247719683257     1.7253990142212172       -1.7253990142212172      0.10148247719683257      3.552129000564607        1.9282124635402225
2.058841639115448         0.4079897277361354       -0.3059629640144157      -0.4589634616433741      -1.9377632831444729      -3.5697221940890143      -0.10198549905797888     1.7339444100025205       -1.7339444100025205      0.10198549905797888      3.5697221940890143       1.9377632831444729
2.072000636677344         0.4105972387930094       -0.3079186758731785      -0.4618970841964303      -1.9501498868192382      -3.592538841991275       -0.10263783158016726     1.7450267867522051       -1.7450267867522051      0.10263783158016726      3.592538841991275        1.9501498868192382
2.186412130955151         0.4332684367034184       -0.3249216755166155      -0.4874028122062135      -2.0578394019678647      -3.7909131487815357      -0.10830934886817119     1.8413830956818453       -1.8413830956818453      0.10830934886817119      3.7909131487815357       2.0578394019678647
2.1927139060434975        0.43451716429951015      -0.3258581992484007      -0.48880766547202187     -2.0637709310342705      -3.801839588232308       -0.1086217355438655      1.8466903927419067       -1.8466903927419067      0.10862173554386549      3.801839588232308        2.0637709310342705
2.2386851439371944        0.44362801946255004      -0.33268935450038295     -0.4990577093541552      -2.1070428619926718      -3.881554939842868       -0.11090673499037264     1.885418812840573        -1.885418812840573       0.11090673499037264      3.881554939842868        2.1070428619926718
2.258360432737602         0.44752579822329386      -0.3356138210321925      -0.5034441295861263      -2.125566384994497       -3.9156695778876687      -0.11188345880134026     1.9019866516945156       -1.9019866516945156      0.11188345880134026      3.9156695778876687       2.125566384994497
2.2849592519298776        0.4527923848680585       -0.33956792034759736     -0.509371223876072       -2.1506038868109654      -3.9617734262831954      -0.11319636472537975     1.9243659041976136       -1.9243659041976136      0.11319636472537975      3.9617734262831954       2.1506038868109654
2.2925564231983886        0.45429663061864994      -0.3406972926514836      -0.5110641242307769      -2.15775511364026        -3.974941636114856       -0.11357135773135747     1.9307578802059573       -1.9307578802059573      0.11357135773135747      3.974941636114856        2.15775511364026
2.299632509159241         0.4556986784961929       -0.34174855441472296     -0.51264150115905        -2.164414310887985       -3.987209024872753       -0.11392298439964632     1.9367176983844179       -1.9367176983844179      0.11392298439964632      3.987209024872753        2.164414310887985
2.303253463802197         0.4564161304604455       -0.3422865031032524      -0.5134486720079797      -2.1678219364207867      -3.9934864582625655      -0.11410291780127135     1.9397674396430533       -1.9397674396430533      0.11410291780127135      3.9934864582625655       2.1678219364207867
2.3219511905081243        0.46012389950386656      -0.3450635177427073      -0.5176187899910598      -2.18541791418463        -4.025913512200093       -0.11503680772838473     1.955532405743851        -1.955532405743851       0.11503680772838473      4.025913512200093        2.18541791418463
2.369919766187688         0.4696312848966278       -0.35219609874292146     -0.528317884546569       -2.2305972646217866      -4.1091224042082946      -0.11742067216425686     1.995945811750768        -1.995945811750768       0.11742067216425686      4.1091224042082946       2.2305972646217866
2.370841862869697         0.46981399834341725      -0.3523332022057013      -0.5285235131392446      -2.23146566248725        -4.110721655860916       -0.11746644925304056     1.9967224426267096       -1.9967224426267096      0.11746644925304056      4.110721655860916        2.23146566248725
2.3812252816846433        0.4718714726605391       -0.3538770779215542      -0.5308390271625957      -2.2412443970939693      -4.128730287736123       -0.11798192956464222     2.0054678202067984       -2.0054678202067984      0.11798192956464222      4.128730287736123        2.2412443970939693
2.404644731249681         0.47651110891572224      -0.35735696508462605     -0.5360601913875376      -2.263289442972586       -4.169333878635472       -0.11914765246482803     2.025192088127717        -2.025192088127717       0.11914765246482803      4.169333878635472        2.263289442972586
2.452782055700992         0.4860482334593535       -0.36451596593078583     -0.5467959062569506      -2.308635055901454       -4.252827989738865       -0.12153926031673826     2.0657321941541515       -2.0657321941541515      0.12153926031673826      4.252827989738865        2.308635055901454
2.4568808887106743        0.4868603076936916       -0.365125545904726       -0.5477100389593984      -2.3124961781643893      -4.2599374089391535      -0.12174290273603264     2.0691841335107983       -2.0691841335107983      0.12174290273603264      4.2599374089391535       2.3124961781643893
2.461241065229177         0.4877241775012752       -0.36577402227386274     -0.5486824614488209      -2.3166035576143233      -4.267500267619422       -0.12195942397114537     2.072856133976246        -2.072856133976246       0.12195942397114537      4.267500267619422        2.3166035576143233
2.4626474957279276        0.48800288705861106      -0.3659831845153224      -0.5489961741244304      -2.3179284759264682      -4.26994002416091        -0.12202936883453275     2.0740409170689764       -2.0740409170689764      0.12202936883453275      4.26994002416091         2.3179284759264682
2.463446348811842         0.48816123775190384      -0.36610192408431097     -0.5491743290709357      -2.3186806130328694      -4.271325564040483       -0.12206906852700272     2.0747140195346176       -2.0747140195346176      0.12206906852700272      4.271325564040483        2.3186806130328694
2.499714799657709         0.4953504624688616       -0.37149277793220103     -0.5572626797957166      -2.3528281280417476      -4.334229977917191       -0.12387146044854017     2.105273310323986        -2.105273310323986       0.1238714604485402       4.334229977917191        2.3528281280417476
2.513184421452446         0.4902503070772577       -0.36796166988695533     -0.5515085138020407      -2.3294184507145146      -4.290419679023543       -0.12164843139278131     2.0826496597018114       -2.0826496597018114      0.12164843139278134      4.290419679023543        2.3294184507145146
2.51410462763968          0.48990187899080295      -0.36772043464512427     -0.5511154055744718      -2.3278191682516556      -4.287426684214865       -0.12149656038090854     2.0811040763441198       -2.0811040763441198      0.12149656038090856      4.287426684214865        2.3278191682516556
2.5175020260928203        0.4885460033225552       -0.36678014548736537     -0.5495860113842179      -2.321592475353859       -4.275776488644078       -0.12091160242966521     2.0750956157198854       -2.0750956157198854      0.12091160242966521      4.275776488644078        2.321592475353859
2.526517686654974         0.4851752946466572       -0.3641862066161605      -0.5459646811374167      -2.3060667551048355      -4.246767933691462       -0.12094951540787105     2.061650693994499        -2.061650693994499       0.12094951540787106      4.246767933691462        2.3060667551048355
2.5280633791095894        0.48457761693565327      -0.36373900816010535     -0.5453130505193632      -2.3033139926864634      -4.241624460429074       -0.12087994372583047     2.059190411468443        -2.059190411468443       0.12087994372583048      4.241624460429074        2.3033139926864634
2.564945530558232         0.4703162806724758       -0.35306829476263824     -0.529764330544791       -2.2376296451221283      -4.11889476781203        -0.11921987654629798     2.0004849992362          -2.0004849992362         0.11921987654629798      4.11889476781203         2.2376296451221283
2.579640258893628         0.46514365507200617      -0.3488861208635735      -0.5233412470960557      -2.209736040830932       -4.070310661118954       -0.11641931564949004     1.976993935937514        -1.976993935937514       0.11641931564949004      4.070310661118954        2.209736040830932
2.594658096283245         0.4597653906641652       -0.34523156750275674     -0.5174637211623646      -2.1860188058293994      -4.0250803684860585      -0.11462940081285847     1.9536909634695183       -1.9536909634695183      0.11462940081285847      4.0250803684860585       2.1860188058293994
2.6224330215625202        0.4497658550029311       -0.33784463871121995     -0.5069509011413807      -2.141805810693321       -3.9408692307050432      -0.11473797842600156     1.9138013984377253       -1.9138013984377253      0.11473797842600154      3.9408692307050432       2.141805810693321
2.658985169348707         0.43788209609185713      -0.328300798761728       -0.4925559337842195      -2.0793619392383484      -3.8308903236057743      -0.10955714666798029     1.8610855310354082       -1.8610855310354082      0.1095571466679803       3.8308903236057743       2.0793619392383484
2.659069088767784         0.4378548123833843       -0.32827888723113896     -0.4925228846374145      -2.079218575476307       -3.830637825009842       -0.10954525208947279     1.8609645016230099       -1.8609645016230099      0.10954525208947279      3.830637825009842        2.079218575476307
2.674844841962389         0.43262166513758704      -0.3248053939563177      -0.48702109886341605     -2.057257247047444       -3.7877439075977897      -0.10842488330953742     1.838911543859885        -1.838911543859885       0.10842488330953744      3.7877439075977897       2.057257247047444
2.693157143539454         0.42685022737697237      -0.3204602016817888      -0.4806101041005839      -2.0301205666937583      -3.7375214762016453      -0.10735935660302455     1.8147602661109135       -1.8147602661109135      0.10735935660302455      3.7375214762016453       2.0301205666937583
2.7297246333448513        0.4155088944469413       -0.31161945773070265     -0.4675848338890722      -1.9741799198545151      -3.636215497642277       -0.10446317347029833     1.7664987512580628       -1.766498751258063       0.10446317347029833      3.636215497642277        1.9741799198545151
2.7354519847568604        0.41364408044888773      -0.3102436704850552      -0.4654938418523384      -1.9654182179667443      -3.6199945397622924      -0.10395619505641245     1.7585325168519628       -1.7585325168519628      0.10395619505641245      3.6199945397622924       1.9654182179667443
2.7378143480588966        0.4129654135393069       -0.30967274110580956     -0.46468511202732354     -1.96182784434811        -3.6136894985053347      -0.10379139771325202     1.7556530518704792       -1.7556530518704794      0.10379139771325202      3.6136894985053347       1.96182784434811
2.7434936683238753        0.41137575173511204      -0.30826450612178996     -0.46285202420598737     -1.953450111719096       -3.598953118659541       -0.10386307498835558     1.749366081928803        -1.7493660819288035      0.10386307498835558      3.598953118659541        1.953450111719096
2.78527355553887          0.3992840912498119       -0.2986051584084009      -0.449571392807348       -1.895532863954972       -3.4926692289542167      -0.10390191350456585     1.7010382785038125       -1.7010382785038125      0.10390191350456585      3.4926692289542167       1.895532863954972
2.8107691101341565        0.3918009294314609       -0.2937324318904615      -0.44097586307488906     -1.8614988891080197      -3.428702606833861       -0.09910429776525047     1.6663080154910934       -1.6663080154910934      0.09910429776525045      3.428702606833861        1.8614988891080197
2.8139354204939693        0.39083250627025057      -0.29305737377013497     -0.43988660503901483     -1.857053528925964       -3.4203835540069636      -0.09870928630515369     1.6620393113861553       -1.6620393113861553      0.09870928630515369      3.4203835540069636       1.857053528925964
2.8420190378833112        0.3833743901276863       -0.2875314062066634      -0.43129505834414955     -1.8210256717412165      -3.3545232322519594      -0.09583723450123582     1.6293347950119803       -1.6293347950119805      0.0958372345012358       3.3545232322519594       1.8210256717412165
2.867547757310969         0.37657784832598046      -0.28240802717142083     -0.42352970478952107     -1.788187204020387       -3.294498597324307       -0.09373904099186121     1.6000504342957824       -1.6000504342957826      0.09373904099186119      3.294498597324307        1.788187204020387
2.8730549379171944        0.3751116649827142       -0.2813027867091571      -0.4218545246216433      -1.7811031286486172      -3.2815497885794715      -0.09328640839367394     1.5937330683245299       -1.59373306832453        0.0932864083936739       3.2815497885794715       1.7811031286486172
2.8889377584534937        0.3708137084929162       -0.27811898446305183     -0.41724126938653017     -1.7616946139494443      -3.2449494479211074      -0.09298070717113323     1.5762355411427973       -1.5762355411427977      0.0929807071711332       3.2449494479211074       1.7616946139494443
2.890119112468568         0.3705325749832832       -0.27788191251653516     -0.41693543849427844     -1.7603223415601537      -3.2424526414932844      -0.09303086646094216     1.5751611663940743       -1.5751611663940746      0.09303086646094214      3.2424526414932844       1.7603223415601537