% Model:              Sphere_potential.mph
% Version:            COMSOL 6.2.0.278
% Date:               Oct 11 2024, 12:27
% Dimension:          1
% Nodes:              786
% Expressions:        11
% Description:        Line graph
% Arc length (m)          Magnetic scalar potential Magnetic scalar potential Magnetic scalar potential Magnetic scalar potential Magnetic scalar potential Magnetic scalar potential Magnetic scalar potential Magnetic scalar potential Magnetic scalar potential Magnetic scalar potential Magnetic scalar potential
0                         8.645312016605982E-6     2.2163235898260084E-5    2.0976183541585817E-5    1.6768506589416067E-4    1.3310381782824336E-4    3.470565050533482E-5     -1.244024389218147E-7    1.2440243890923797E-7    -3.470565050533699E-5    -1.3310381782824336E-4   -1.67685065894152E-4
0.09166947309452632       8.69222559717487E-6      0.02162331674090466      0.021622387270218684     0.15137688375478323      0.15134211485239454      0.021636983309355904     -0.02160221440696725     0.02160221440696725      -0.021636983309355925    -0.15134211485239454     -0.15137688375478323
0.10795110893546953       8.700671056532114E-6     0.025459949807774756     0.02545906577449071      0.1782335138634003       0.1781987111791741       0.025473815016752405     -0.025439012332526302    0.025439012332526302     -0.025473815016752426    -0.1781987111791741      -0.1782335138634003
0.1190205294269181        8.706810449568168E-6     0.028068368096521773     0.028067514617180038     0.19649257637918477      0.1964577491373864       0.02808236780005475      -0.028047540558256555    0.028047540558256565     -0.028082367800054776    -0.1964577491373864      -0.19649257637918477
0.1501650615513535        8.723600340118307E-6     0.035407320836870725     0.03540655384781226      0.24786562510254156      0.24783073070118078      0.035421700081317835     -0.035386805679957445    0.03538680567995748      -0.035421700081317876    -0.24783073070118078     -0.24786562510254156
0.1845259248723993        8.742124141728749E-6     0.0435041755599794       0.04350350399315399      0.3045440269008377       0.3045090584042702       0.04351897354096188      -0.043484005044395056    0.0434840050443951       -0.04351897354096192     -0.3045090584042702      -0.3045440269008377
0.22452164301966077       8.76312776399487E-6      0.052928836521303056     0.05292827744269243      0.3705171455902069       0.3704820930791503       0.052944126462389        -0.05290907395133316     0.05290907395133321      -0.05294412646238901     -0.3704820930791503      -0.3705171455902069
0.3125538591053282        8.809663742831452E-6     0.07367290473208628      0.07367259098864859      0.5157266974783381       0.5156914588233668       0.07368926908582119      -0.07365403043084981     0.07365403043084987      -0.07368926908582119     -0.5156914588233668      -0.515726697478338
0.34200932793093863       8.825069545462553E-6     0.08061384362128635      0.08061361212685406      0.5643136295103651       0.5642783292321835       0.08063056778264799      -0.08059526750446602     0.08059526750446608      -0.080630567782648       -0.5642783292321835      -0.5643136295103651
0.3509847054954038        8.829763848450982E-6     0.08272881750105311      0.08272861106871987      0.5791185563057347       0.5790832372503412       0.08274565129941695      -0.08271033224402301     0.08271033224402308      -0.08274565129941697     -0.5790832372503412      -0.5791185563057346
0.39325087995730357       8.851424695014278E-6     0.09268849286811104      0.09268840490223937      0.6488368010626797       0.6488013953639002       0.09270584385401419      -0.0926704381552341      0.09267043815523415      -0.09270584385401419     -0.6488013953639002      -0.6488368010626797
0.42739460060864076       8.869691913829345E-6     0.10073418105750166      0.10073418785973293      0.7051570339952635       0.7051215552276088       0.10075194765025418      -0.10071646888259883     0.10071646888259889      -0.10075194765025418     -0.7051215552276088      -0.7051570339952635
0.44767346419188436       8.88054130081321E-6      0.10551272920965148      0.10551279229717897      0.7386071179002711       0.7385715957350686       0.10553074264236292      -0.10549522047715965     0.10549522047715967      -0.10553074264236292     -0.7385715957350686      -0.7386071179002711
0.6055886363117209        8.964646416488456E-6     0.14272414575534162      0.14272464812217053      0.9990889590475397       0.9990531004618749       0.14274408451549012      -0.1427082259298242      0.14270822592982424      -0.14274408451549012     -0.9990531004618749      -0.9990889590475397
0.6150675062851082        8.96978366122722E-6      0.14495776379576877      0.14495829244265426      1.0147244007252456       1.0146885215906019       0.14497781795063316      -0.14494193881598827     0.14494193881598827      -0.14497781795063316     -1.0146885215906019      -1.0147244007252456
0.6177731006263537        8.971250006931586E-6     0.14559531493294553      0.14559585108105982      1.0191872916230895       1.019151406623063        0.14561540202541656      -0.14557951702538885     0.14557951702538885      -0.14561540202541656     -1.019151406623063       -1.0191872916230895
0.6355698243442357        8.980485567349579E-6     0.14978896656773155      0.1497895527450826       1.0485430716546595       1.0485071497123915       0.14980927224827031      -0.14977335030600092     0.14977335030600092      -0.14980927224827031     -1.0485071497123915      -1.0485430716546595
0.6357229025713144        8.980561660125756E-6     0.1498250381904929       0.14982562479735273      1.0487955748842097       1.0487596526375704       0.1498453457412525       -0.149809423494612       0.149809423494612        -0.1498453457412525      -1.0487596526375704      -1.0487955748842097
0.6453335661713002        8.985338969672192E-6     0.15208971187061399      0.152090325443195        1.0646484080625611       1.0646124667066836       0.15211013683887747      -0.1520741954829988      0.15207419548299883      -0.15211013683887747     -1.0646124667066836      -1.0646484080625611
0.7004262743345364        9.0150780616121E-6       0.16507185923093115      0.16507262402069572      1.1555241039316995       1.1554880436194541       0.1650929485461129       -0.16505688823386638     0.16505688823386638      -0.1650929485461129      -1.1554880436194541      -1.1555241039316995
0.702176015401569         9.016022573364764E-6     0.16548417144305388      0.16548494103546707      1.1584103105161765       1.1583742464258842       0.16550528185785346      -0.1654692177675599      0.1654692177675599       -0.16550528185785346     -1.1583742464258842      -1.1584103105161765
0.8339246615159871        9.087192756710404E-6     0.19652966489028156      0.19653079674309437      1.3757303560287355       1.3756940072577097       0.19655236668704668      -0.19651601791601953     0.19651601791601953      -0.19655236668704668     -1.3756940072577097      -1.3757303560287355
0.8676354173260575        9.104703319724738E-6     0.20447332901607765      0.20447455385891852      1.4313364118905467       1.4312999930772683       0.20449643779408083      -0.20446001898080163     0.20446001898080163      -0.20449643779408083     -1.4312999930772683      -1.4313364118905467
0.875222838257005         9.108696348979965E-6     0.2062612426352548       0.20626248851213522      1.4438518993470035       1.443815464561608        0.20628444353547445      -0.2062480087500782      0.2062480087500782       -0.20628444353547445     -1.443815464561608       -1.4438518993470035
0.8783054249864923        9.11030351037395E-6      0.20698762895427605      0.20698888312757188      1.4489366399801367       1.4489001987660957       0.20701086625448034      -0.2069744250404385      0.2069744250404385       -0.20701086625448034     -1.4489001987660957      -1.4489366399801367
0.8832566261552833        9.112756467140803E-6     0.20815433916844256      0.20815560641733644      1.4571036686876078       1.4570672176617399       0.20817763367695244      -0.20814118265108356     0.20814118265108358      -0.20817763367695244     -1.4570672176617399      -1.4571036686876078
1.0089150518511483        9.179626730181304E-6     0.23776472672196047      0.23776633330736005      1.6643778726487812       1.664341154141862        0.23778951231701895      -0.23775279381009787     0.23775279381009787      -0.23778951231701895     -1.664341154141862       -1.6643778726487812
1.0296409670481659        9.190656212632449E-6     0.24264862032468948      0.2426502828797513       1.698565373805498        1.6985286111806492       0.2426736518573617       -0.2426368892325108      0.2426368892325108       -0.2426736518573617      -1.6985286111806492      -1.698565373805498
1.0330204653131432        9.192443782789558E-6     0.24344497163478995      0.24344664336104282      1.704139873236106        1.7041031034609766       0.2434700434273667       -0.24343327365223516     0.24343327365223516      -0.2434700434273667      -1.7041031034609766      -1.704139873236106
1.0344452079404753        9.19311756639071E-6      0.24378070065281005      0.24378237603755026      1.7064899923437629       1.7064532198734992       0.24380578842690337      -0.24376901595663744     0.24376901595663744      -0.24380578842690337     -1.7064532198734992      -1.7064899923437629
1.0866985654177537        9.216846089761229E-6     0.25609377866689875      0.25609558863955156      1.7926821242510802       1.7926452568667237       0.256119452249689        -0.2560825848653297      0.2560825848653297       -0.256119452249689       -1.7926452568667237      -1.7926821242510802
1.1055403407648008        9.226094342385666E-6     0.26053369004125654      0.26053554966675785      1.8237617209794839       1.823724816602117        0.2605595807319461       -0.26052267635457627     0.26052267635457627      -0.2605595807319461      -1.823724816602117       -1.8237617209794839
1.187735505639794         9.266438823487058E-6     0.2799023132587548       0.27990438948932617      1.9593430306112136       1.9593059648559228       0.2799291510586866       -0.27989208530339227     0.27989208530339227      -0.2799291510586866      -1.9593059648559228      -1.9593430306112136
1.2543856443938735        9.29541885219239E-6      0.2956078769577531       0.2956101191007509       2.0692826981139634       2.069245516438559        0.29563543636744816      -0.29559825469203893     0.29559825469203893      -0.29563543636744816     -2.069245516438559       -2.0692826981139634
1.2786975250059522        9.305044448778242E-6     0.3013367765255068       0.3013390800007948       2.1093852596685925       2.109348039490802        0.3013646005155557       -0.3013273803377601      0.3013273803377601       -0.3013646005155557      -2.109348039490802       -2.1093852596685925
1.3035791707334101        9.314895627629202E-6     0.3071999366704365       0.30720230291537776      2.150427651464071        2.150390391881565        0.3072280314414562       -0.30719077185894517     0.30719077185894517      -0.3072280314414562      -2.150390391881565       -2.150427651464071
1.3676159540121084        9.341485350686674E-6     0.3222896964014196       0.3222922262975989       2.256056677365351        2.2560193114239535       0.3223184989568372       -0.32228113301543404     0.32228113301543404      -0.3223184989568372      -2.2560193114239535      -2.2560566773653514
1.4386331678460826        9.358592520834481E-6     0.33902433731087045      0.3390270324647193       2.373199858976527        2.3731624246064476       0.3390538351113066       -0.33901640074122313     0.3390164007412231       -0.3390538351113066      -2.3731624246064476      -2.373199858976527
1.4734659540082005        9.366983309041198E-6     0.34723240598646626      0.3472351821965092       2.43065668071205         2.4306192127788178       0.3472622447932548       -0.3472247768600186      0.3472247768600185       -0.3472622447932548      -2.4306192127788178      -2.43065668071205
1.479101909087352         9.368446292059348E-6     0.34856047356074105      0.3485632637991818       2.439953212771531        2.439915738986366        0.348590371407087        -0.34855289762191877     0.34855289762191866      -0.348590371407087       -2.439915738986366       -2.439953212771531
1.4977570626737746        9.370383298515147E-6     0.35295641226422403      0.35295924676274415      2.4707249646102425       2.4706874830770515       0.35298649102490043      -0.3529490094917065      0.35294900949170627      -0.35298649102490043     -2.4706874830770515      -2.4707249646102425
1.5001660714827396        9.370931917041054E-6     0.3535240759828777       0.35352691613568693      2.4746986343552115       2.4746611506275467       0.35355417845794745      -0.3535166947302794      0.35351669473027925      -0.35355417845794745     -2.4746611506275467      -2.4746986343552115
1.5030418679536222        9.370713964765632E-6     0.3542017362382863       0.3542045819660222       2.479442278006874        2.479404795151018        0.3542318605771584       -0.35419437772129947     0.3541943777212993       -0.3542318605771584      -2.479404795151018       -2.479442278006874
1.5528735964266267        9.366937293247917E-6     0.3659442159952428       0.3659471583251679       2.561640015160984        2.5616025474118134       0.3659747191895287       -0.3659372514403557      0.3659372514403556       -0.3659747191895287      -2.5616025474118134      -2.561640015160984
1.6297987329691281        9.362433011707067E-6     0.3840710358827184       0.3840741366921242       2.6885283792826753       2.688490929550629        0.3841021639863641       -0.38406471425431754     0.3840647142543175       -0.3841021639863641      -2.688490929550629       -2.6885283792826753
1.643507627156896         9.365952328662763E-6     0.38730143472306         0.3873045631228392       2.7111412885651935       2.71110382475588         0.3873326802268333       -0.38729521641751885     0.3872952164175188       -0.3873326802268333      -2.71110382475588        -2.7111412885651935
1.6516533634920867        9.365757017512698E-6     0.389220908764092        0.3892240517098968       2.724577664645898        2.724540201617829        0.3892522120613456       -0.38921474903327574     0.3892147490332757       -0.3892522120613456      -2.724540201617829       -2.724577664645898
1.6704817718813547        9.362210994029061E-6     0.3936576612482309       0.3936608352914598       2.7556350493325192       2.7555976004885436       0.393689081843134        -0.39365163299915806     0.393651632999158        -0.393689081843134       -2.7555976004885436      -2.7556350493325192
1.7418496712017966        9.331075194073633E-6     0.41047498527959164      0.4104782822245918       2.8733567468875303       2.8733194225867535       0.4105068352099802       -0.4104695109092041      0.410469510909204        -0.4105068352099802      -2.8733194225867535      -2.8733567468875303
1.7622208487024222        9.322187824351534E-6     0.4152753044173342       0.41527863644328555      2.906959103400793        2.9069218146494955       0.41530727689678837      -0.4152699881454911      0.4152699881454911       -0.41530727689678837     -2.9069218146494955      -2.906959103400793
1.793430391992672         9.248717738426964E-6     0.4226295803996072       0.42263293635907295      2.9584389840705896       2.9584019891996354       0.4226615016729468       -0.4226245068019932      0.4226245068019932       -0.4226615016729468      -2.9584019891996354      -2.9584389840705896
1.8462497882586706        9.136773859865378E-6     0.43507606435166535      0.43507945385528         3.0455642820238356       3.0455277349283962       0.435107895913843        -0.4350713488184037      0.4350713488184037       -0.435107895913843       -3.0455277349283962      -3.0455642820238356
1.8777385437923446        9.058676018420218E-6     0.44249616017150295      0.44249962113712665      3.0975050824150525       3.097468847710979        0.4425281213860338       -0.44249188668196027     0.44249188668196027      -0.4425281213860338      -3.097468847710979       -3.0975050824150525
1.8916979588935672        9.02405412978491E-6      0.44578559463420164      0.44578908727995464      3.1205311811306835       3.120495084914164        0.44581761332547265      -0.4457815171089536      0.4457815171089536       -0.44581761332547265     -3.120495084914164       -3.1205311811306835
1.89449461448633          9.034374148949665E-6     0.4464446045454591       0.44644810232301024      3.1251442916767163       3.1251081541801202       0.446476664403961        -0.44644052690736524     0.44644052690736524      -0.446476664403961       -3.1251081541801202      -3.1251442916767163
1.8973845067303194        9.006782295186517E-6     0.4471255911507545       0.4471290813590222       3.129911112452943        3.1298750853237616       0.4471575655484148       -0.4471215384192341      0.4471215384192341       -0.4471575655484148      -3.1298750853237616      -3.129911112452943
1.9056558348242705        8.976342497897614E-6     0.44907467248702104      0.44907819452951436      3.143554748264117        3.143518842894125        0.44910671334198954      -0.449070807971998       0.449070807971998        -0.44910671334198954     -3.143518842894125       -3.143554748264117
1.9368625970704267        8.861496670723844E-6     0.45642833046895703      0.45643197261829427      3.195030604873389        3.194995158886707        0.4564606220596471       -0.4564251760729644      0.4564251760729644       -0.4564606220596471      -3.194995158886707       -3.195030604873389
1.9970835053010152        8.646529114141998E-6     0.4706192350268212       0.47062263817974337      3.2943655508576652       3.2943309647412087       0.47065014069673716      -0.47061555458028087     0.47061555458028087      -0.47065014069673716     -3.2943309647412087      -3.2943655508576652
2.011910725874318         8.529386920947822E-6     0.47411319381355127      0.47411660090044105      3.31882304381626         3.318788926268576        0.4741438809349516       -0.474109763387268       0.474109763387268        -0.4741438809349516      -3.318788926268576       -3.31882304381626
2.012271574915923         8.526536039496664E-6     0.47419822604689316      0.47420163322952363      3.319418264130853        3.3193841579866947       0.47422890784949334      -0.47419480170533557     0.4741948017053355       -0.47422890784949334     -3.3193841579866947      -3.319418264130853
2.0531788818157537        8.222848472597306E-6     0.48383766532758266      0.48384125170169345      3.3868944484864683       3.386861557092577        0.4838684565209709       -0.4838355651270806      0.4838355651270805       -0.4838684565209709      -3.386861557092577       -3.3868944484864683
2.074594665499639         8.066228655332665E-6     0.4888841960079199       0.4888877087764382       3.4222195555868247       3.422187290672202        0.48891437953930367      -0.4888821146246825      0.4888821146246824       -0.48891437953930367     -3.422187290672202       -3.4222195555868247
2.0753132391074187        8.063087656555185E-6     0.4890535254666758       0.489057039396249        3.4234048601603377       3.4233726078097106       0.4890837073602815       -0.48905145500965524     0.48905145500965524      -0.4890837073602815      -3.4233726078097106      -3.4234048601603377
2.1013231977553866        7.949394018015848E-6     0.4951826849187343       0.49518624087460383      3.466308917042655        3.4662771194665822       0.4952128075302478       -0.4951810099541758      0.4951810099541758       -0.4952128075302478      -3.4662771194665822      -3.466308917042655
2.105106638091704         7.939606067399168E-6     0.49607427418042754      0.4960778048285639       3.472549921067674        3.472518162643403        0.49610427598510726      -0.49607251756083776     0.49607251756083776      -0.49610427598510726     -3.472518162643403       -3.472549921067674
2.1535744195055924        7.814217476933682E-6     0.5074959828913885       0.507499189334683        3.552500334447852        3.5524690775779435       0.5075244370995193       -0.5074931802296117      0.5074931802296117       -0.5075244370995193      -3.5524690775779435      -3.552500334447852
2.184361169350716         7.565531898845023E-6     0.5147510176495429       0.514754021730903        3.6032842709360393       3.603254008808444        0.5147781650387808       -0.5147479029111856      0.5147479029111856       -0.5147781650387808      -3.603254008808444       -3.6032842709360393
2.2342154651662955        6.801941261954086E-6     0.5264991687204086       0.5265022066728064       3.685519936734976        3.6854927289699284       0.5265249244125233       -0.5264977166474757      0.5264977166474757       -0.5265249244125233      -3.6854927289699284      -3.685519936734976
2.270469227160927         6.825238295577948E-6     0.5350441209409516       0.535047177308894        3.7453347225350226       3.74530742158184         0.535069996889312        -0.5350426959361299      0.5350426959361299       -0.535069996889312       -3.74530742158184        -3.7453347225350226
2.284402348186524         6.982682118294786E-6     0.5383281456689769       0.5383311547132          3.768323021223968        3.768295090495495        0.5383541472101053       -0.5383262164816324      0.5383262164816324       -0.5383541472101053      -3.768295090495495       -3.768323021223968
2.2961394142609315        7.267860612957672E-6     0.5410946159115533       0.5410975884457118       3.787688737238734        3.787659665796281        0.5411210417694126       -0.541091970326961       0.5410919703269609       -0.5411210417694126      -3.787659665796281       -3.787688737238734
2.367107732577204         8.992195984116724E-6     0.5578221131875339       0.5578248649631252       3.904783783807072        3.9047478150231347       0.5578511046818676       -0.5578151358979314      0.5578151358979313       -0.5578511046818676      -3.9047478150231347      -3.904783783807072
2.5                       1.4341948544135897E-5    0.5891517793744186       0.5891540950083028       4.124100402053556        4.124043034259379        0.5891897258070431       -0.5891323580128668      0.5891323580128668       -0.5891897258070431      -4.124043034259379       -4.124100402053556
2.568988214722091         -3.8076659354010795E-5   0.5578069951042868       0.5577732090267866       3.9044376681012998       3.904589974738715        0.5575956974755785       -0.5577480041129946      0.5577480041129946       -0.5575956974755784      -3.904589974738715       -3.9044376681012998
2.5882483640731553        1.7325453826231581E-4    0.5498382960648488       0.5495390935330711       3.848017771403356        3.847324753250306        0.5489879950142628       -0.5482949768612136      0.5482949768612136       -0.5489879950142628      -3.847324753250306       -3.848017771403356
2.6230873906005594        1.0399784865217527E-4    0.5350162028099679       0.5349928886819606       3.745228158855051        3.744812167460441        0.5351309419952435       -0.5347149506006349      0.5347149506006349       -0.5351309419952435      -3.744812167460441       -3.745228158855051
2.637976429459073         -1.6696010696855257E-5   0.5288227667467873       0.5288305232884669       3.7017570013728367       3.701823785415623        0.5288204008921129       -0.5288871849349005      0.5288871849349006       -0.5288204008921129      -3.701823785415623       -3.7017570013728367
2.656963192113272         5.215106030712492E-5     0.5216958334050107       0.521491498602825        3.651157796746947        3.6509491925057174       0.5209827963168825       -0.5207741920756541      0.5207741920756543       -0.5209827963168825      -3.6509491925057174      -3.651157796746947
2.6764967282154846        2.1089871266248496E-4    0.5142797093024629       0.5138621561781151       3.5987095500451742       3.597865955194523        0.5130312942303968       -0.5121876993797471      0.5121876993797472       -0.5130312942303968      -3.597865955194523       -3.5987095500451742
2.7015830546135406        8.964556491691594E-5     0.5044617749034728       0.5043147539423791       3.5308236316097688       3.5304650493500995       0.5040529821889317       -0.5036943999292642      0.5036943999292645       -0.5040529821889317      -3.5304650493500995      -3.5308236316097688
2.702970118301275         7.99857856012829E-5      0.5039146053885938       0.5037863135678123       3.5270490420082337       3.526729098865827        0.5035614096766707       -0.5032414665342657      0.5032414665342659       -0.5035614096766707      -3.526729098865827       -3.5270490420082337
2.7069646441960553        5.2167136064591117E-5    0.5023388429954558       0.5022644881615814       3.516178815904822        3.5159701473605627       0.5021457579320874       -0.5019370893878292      0.5019370893878293       -0.5021457579320874      -3.5159701473605627      -3.516178815904822
2.721047834725596         2.2604168117138553E-5    0.49698066056387913      0.4972752227137309       3.480088080882796        3.479997664210326        0.4982041174995205       -0.4981137008270522      0.49811370082705225      -0.4982041174995205      -3.479997664210326       -3.480088080882796
2.721938040846777         1.979680679079117E-5     0.4966518599974824       0.4969560925942397       3.4778195439829878       3.4777403567558234       0.4979083839980932       -0.49782919677093024     0.49782919677093035      -0.4979083839980932      -3.4777403567558234      -3.4778195439829878
2.726515906332369         5.36001264204132E-6      0.4949610102844376       0.4953149729426557       3.4661536426492203       3.4661322025986507       0.4963875809425939       -0.496366140892026       0.49636614089202613      -0.4963875809425939      -3.4661322025986507      -3.4661536426492203
2.7569906090104537        1.3280737881953854E-4    0.4842321722151757       0.48435075492184465      3.3903651510905455       3.389833921575267        0.48497211779949023      -0.4844408882842124      0.4844408882842124       -0.48497211779949023     -3.389833921575267       -3.3903651510905455
2.7652574016653935        7.087546036306622E-5     0.48133751751162424      0.48148802650602396      3.3701064094796953       3.369822907638243        0.4820813044099488       -0.4817978025684968      0.4817978025684968       -0.4820813044099488      -3.369822907638243       -3.3701064094796953
2.778510568283369         -1.687015699312404E-4    0.4767723216247837       0.477047796402341        3.3381707473438533       3.3388455536235777       0.47753681759515026      -0.4782116238748756      0.4782116238748756       -0.47753681759515026     -3.3388455536235777      -3.3381707473438533
2.781828863168353         -2.073119697795884E-4    0.47562485433183865      0.47584772522165236      3.3298508399425666       3.3306800878216842       0.47610171395153406      -0.47693096183065276     0.47693096183065276      -0.47610171395153406     -3.3306800878216842      -3.3298508399425666
2.7876437980257105        -2.128627969919624E-4    0.4737313055114528       0.473908426958883        3.3164018987759074       3.3172533499638748       0.4740140657071895       -0.47486551689515766     0.47486551689515766      -0.4740140657071895      -3.3172533499638748      -3.3164018987759074
2.805683363709289         -1.7090093630935078E-4   0.4677732835474063       0.4680474176055816       3.275167719191927        3.275851322937164        0.4685280179074887       -0.46921162165272645     0.46921162165272645      -0.4685280179074887      -3.275851322937164       -3.275167719191927
2.831390808662428         -1.0597279855486944E-4   0.45912124108839836      0.45922852119240615      3.214065862437711        3.214489753631929        0.45933841590731994      -0.4597623071015396      0.4597623071015396       -0.45933841590731994     -3.214489753631929       -3.214065862437711
2.8342915264387374        -9.864658610122542E-5    0.4581449817437621       0.4582334347635621       3.2071713911133335       3.2075659774577368       0.45830150065075964      -0.4586960869951647      0.4586960869951647       -0.45830150065075964     -3.2075659774577368      -3.2071713911133335
2.839280068226883         -1.8615102128039527E-4   0.45663527506910745      0.4566840102002769       3.1962695639658705       3.1970141680509903       0.45645791355122456      -0.45720251763634634     0.45720251763634634      -0.45645791355122456     -3.1970141680509903      -3.1962695639658705
2.860341560282996         -3.7354858710032985E-4   0.4497677002308683       0.4501058472942592       3.1489793926954417       3.1504735870438427       0.45037319131023107      -0.45186738565863266     0.4518673856586326       -0.45037319131023107     -3.1504735870438427      -3.1489793926954417
2.8605228580739297        -3.6924147222693743E-4   0.4497057776180172       0.4500481316683917       3.148571376583165        3.150048342472072        0.45033671087506116      -0.4518136767639692      0.45181367676396916      -0.45033671087506116     -3.150048342472072       -3.148571376583165
2.8609110711776133        -3.632162018337586E-4    0.4495881196683951       0.44992650217864166      3.147743935316085        3.149196800123419        0.4502152173057137       -0.4516680821130491      0.45166808211304904      -0.4502152173057137      -3.149196800123419       -3.147743935316085
2.873094485886542         -2.1139952829436618E-4   0.4458683162849729       0.4460029835959687       3.1211940841822052       3.1220396822953824       0.44598418647236715      -0.4468297845855449      0.4468297845855449       -0.44598418647236715     -3.1220396822953824      -3.1211940841822052