% Model:              Sphere_potential.mph
% Version:            COMSOL 6.2.0.278
% Date:               Oct 11 2024, 12:27
% Dimension:          1
% Nodes:              805
% Expressions:        11
% Description:        Line graph
% Arc length (m)          Magnetic scalar potential Magnetic scalar potential Magnetic scalar potential Magnetic scalar potential Magnetic scalar potential Magnetic scalar potential Magnetic scalar potential Magnetic scalar potential Magnetic scalar potential Magnetic scalar potential Magnetic scalar potential
0                         8.645312016608564E-6     2.2163235898257482E-5    2.097618354158764E-5     1.6768506589417975E-4    1.331038178282438E-4     3.4705650505341325E-5    -1.2440243891270741E-7   1.2440243890750324E-7    -3.4705650505348264E-5   -1.331038178282438E-4    -1.676850658941624E-4
0.02525650458320093       0.005960170681097279     0.0059736640785856615    2.0975480943050476E-5    0.02992523552172369      0.006084552797335004     -0.005916748949789641    0.02975743167417871      -0.029757431674178717    0.005916748949789629     -0.006084552797335004    -0.029925235521723673
0.06002755378633662       0.014153734472171458     0.014167194103767013     2.0974513663982652E-5    0.07089294931029996      0.014278011421614464     -0.014110215312301574    0.07072515320098728      -0.07072515320098728     0.014110215312301558     -0.014278011421614464    -0.07089294931029995
0.0681495721529709        0.016067633538155584     0.016081085334239503     2.0974187631896124E-5    0.08046241982955729      0.01619188567693529      -0.01602409217587919     0.08029462632850139      -0.08029462632850139     0.01602409217587918      -0.01619188567693529     -0.08046241982955729
0.10100847272956343       0.023810612719433414     0.023824032815724726     2.097286861789914E-5     0.11917721536051246      0.02393476448277911      -0.023766981533835385    0.11900943241156894      -0.11900943241156894     0.023766981533835385     -0.02393476448277911     -0.11917721536051246
0.21503933254887247       0.050681220724747275     0.050694531673406526     2.0968759893770852E-5    0.25352991150928905      0.050805028610300285     -0.05063727853114978     0.2533621614301387       -0.2533621614301387      0.05063727853114978      -0.050805028610300285    -0.253529911509289
0.22524059687232523       0.05308508048869091      0.053098381830262865     2.0968577363434304E-5    0.26554918077762407      0.05320885882286076      -0.053041110203952926    0.26538143215871624      -0.26538143215871624     0.053041110203952926     -0.05320885882286076     -0.265549180777624
0.22976949870055013       0.05415228593838127      0.054165583014839244     2.096849632818765E-5     0.27088519490659296      0.054276051153068196     -0.05410830318244231     0.2707174469359671       -0.2707174469359671      0.05410830318244231      -0.054276051153068196    -0.2708851949065929
0.2749713365010012        0.06480379840273548      0.06481705255592         2.0967989775844934E-5    0.3241426264323344       0.06492743282139278      -0.06475968890318565     0.3239748825141272       -0.32397488251412715     0.06475968890318565      -0.06492743282139278     -0.3241426264323344
0.2794602814903495        0.06586158839841944      0.06587483835379879      2.096792202612688E-5     0.3294315635463398       0.06598520995266237      -0.06581746657645296     0.32926382017013034      -0.32926382017013034     0.06581746657645296      -0.06598520995266237     -0.3294315635463398
0.3826138013942538        0.09016902778366508      0.09018217994769977      2.0965180449636312E-5    0.4509684561322282       0.0902923449975683       -0.09012462355397026     0.45080073468863036      -0.45080073468863036     0.09012462355397026      -0.0902923449975683      -0.4509684561322282
0.4129335358610963        0.09731367112164382      0.09732679454250301      2.0964371148221583E-5    0.48669158335538976      0.09743689886881493      -0.09726918389962803     0.4865238683862032       -0.4865238683862031      0.09726918389962803      -0.09743689886881493     -0.48669158335538976
0.4132765749861829        0.09739450600502302      0.09740762910068035      2.0964361991740888E-5    0.4870957567600543       0.09751773273996266      -0.09735001784402758     0.48692804186411953      -0.4869280418641194      0.09735001784402758      -0.09751773273996266     -0.4870957567600543
0.4985831547408148        0.11749643794196796      0.11750948128539067      2.096388235693007E-5     0.5876051752695358       0.11761942350166467      -0.11745171244280787     0.5874374642106798       -0.5874374642106797      0.11745171244280787      -0.11761942350166467     -0.5876051752695358
0.5013618536047729        0.11815121993385559      0.11816426061418489      2.096378872687248E-5     0.5908790768651734       0.11827419712975185      -0.11810648681993552     0.5907113665553578       -0.5907113665553577      0.11810648681993552      -0.11827419712975185     -0.5908790768651734
0.5028645547934184        0.11850532154089469      0.11851836084318823      2.0963779069447554E-5    0.592649580727632        0.11862829456405398      -0.11846058433149706     0.5924818704950758       -0.5924818704950757      0.11846058433149706      -0.11862829456405398     -0.592649580727632
0.5037762597788848        0.11872015879725581      0.11873319726348025      2.0963773210185368E-5    0.5937237644777932       0.1188431292887707       -0.11867541910308788     0.5935560542921111       -0.593556054292111       0.11867541910308788      -0.1188431292887707      -0.5937237644777932
0.6120123748872807        0.1442252834113395       0.14423822195769745      2.09613572238615E-5      0.7212490781246667       0.1443479444793097       -0.14418025362151765     0.7210813872668753       -0.7210813872668753      0.14418025362151765      -0.1443479444793097      -0.7212490781246667
0.6153860534288352        0.145020268647931        0.14503320406779857      2.096139834278747E-5     0.7252239950926286       0.14514292050090577      -0.1449752293141623      0.7250563039058859       -0.7250563039058859      0.1449752293141623       -0.14514292050090577     -0.7252239950926286
0.6389500122015549        0.1505729610900896       0.15058587467252071      2.096168554403463E-5     0.7529873929399169       0.1506955485795599       -0.1505278550952064      0.7528196994555645       -0.7528196994555645      0.1505278550952064       -0.1506955485795599      -0.7529873929399167
0.7084875829219771        0.1669590332406023       0.16697188396289137      2.09625974122319E-5      0.8349175687595267       0.16708143579711937      -0.16691373501782014     0.8347498679802292       -0.8347498679802292      0.16691373501782014      -0.16708143579711937     -0.8349175687595265
0.7757517582627933        0.1828093938796047       0.18282218308318693      2.0960916978773718E-5    0.9141691806766841       0.18293160515826754      -0.18276391782243578     0.9140014933408547       -0.9140014933408547      0.18276391782243578      -0.18293160515826754     -0.9141691806766837
0.7958895867801552        0.18755474289171076      0.1875675127685495       2.096140732341968E-5     0.9378958697183624       0.18767689815152178      -0.18750920689293288     0.9377281784597759       -0.9377281784597759      0.18750920689293288      -0.18767689815152178     -0.9378958697183621
0.8613492331355894        0.20297988507612072      0.2029925921298109       2.0963001228510927E-5    1.0150213985465872       0.20310185824210653      -0.20293415423227698     1.0148536945367597       -1.0148536945367597      0.20293415423227698      -0.20310185824210653     -1.015021398546587
0.8722162626114109        0.20554063018635177      0.20555332667437123      2.0963388236410613E-5    1.0278250939487619       0.205662573203357        -0.20549486609746426     1.0276573868428711       -1.0276573868428711      0.20549486609746426      -0.205662573203357       -1.0278250939487616
0.9001102391566342        0.2121136642914233       0.21212633360498268      2.096401258958321E-5     1.0606901854481519       0.21223552828246098      -0.21206781618174292     1.0605224733474359       -1.0605224733474359      0.21206781618174292      -0.21223552828246098     -1.0606901854481516
0.9009539402025923        0.21231247695436134      0.21232514544091743      2.0964017247867886E-5    1.0616842463004654       0.2124343384830224       -0.2122666263450381      1.061516534162483        -1.061516534162483       0.2122666263450381       -0.2124343384830224      -1.0616842463004652
0.9010011240239646        0.21232359551492838      0.2123362639576668       2.0964014754330947E-5    1.0617398389618735       0.2124454569021622       -0.21227774478412617     1.0615721268438396       -1.0615721268438396      0.21227774478412617      -0.2124454569021622      -1.0617398389618733
0.9314950128718208        0.2195092820536264       0.21952192217792152      2.0962403232918213E-5    1.0976681802539483       0.21963105203944464      -0.21946335281358        1.0975004810280855       -1.0975004810280853      0.21946335281358         -0.21963105203944464     -1.097668180253948
0.9449729491517302        0.22268527147896242      0.22269789768155948      2.0962911637602884E-5    1.1135480876491526       0.22280700173330537      -0.2226392984402033      1.1133803843560526       -1.1133803843560524      0.2226392984402033       -0.22280700173330537     -1.1135480876491526
0.9997062263169069        0.23558281490822264      0.23559539065067653      2.0963220663415202E-5    1.1780356546511275       0.23570439501823948      -0.23553668925293086     1.177867948885821        -1.1778679488858208      0.23553668925293086      -0.23570439501823948     -1.1780356546511275
1.040596805633335         0.24521841595198382      0.24523095399626585      2.0963451532919706E-5    1.2262135476988958       0.2453398838909634       -0.2451721762786987      1.2260458400866334       -1.2260458400866332      0.2451721762786987       -0.2453398838909634      -1.2262135476988958
1.100087161479142         0.2592369331212469       0.25924941876579166      2.0961926878462767E-5    1.2963059702473818       0.25935823776239697      -0.25919054234736794     1.2961382748323549       -1.2961382748323549      0.25919054234736794      -0.25935823776239697     -1.2963059702473818
1.1401607429491107        0.2686800181555343       0.2686924640735244       2.096242681804382E-5     1.3435212782389132       0.26880120561677856      -0.26863350620223264     1.3433535788243693       -1.3433535788243693      0.26863350620223264      -0.26880120561677856     -1.343521278238913
1.1840078196507566        0.2790123033821204       0.2790247058327381       2.0962973834065275E-5    1.3951825761577907       0.27913336262931143      -0.2789656588386373      1.3950148723671185       -1.3950148723671185      0.2789656588386373       -0.27913336262931143     -1.3951825761577905
1.221566915110264         0.2878628638452164       0.2878752311342445       2.0962835751570617E-5    1.439435272436172        0.2879838170553088       -0.28781611436929444     1.43926756975016         -1.43926756975016        0.28781611436929444      -0.2879838170553088      -1.4394352724361719
1.253536162284746         0.2953962112907906       0.295408552093246        2.09623083405352E-5      1.4771019280946809       0.29551708293152085      -0.29534938446479475     1.4769342296279568       -1.4769342296279568      0.29534938446479475      -0.29551708293152085     -1.4771019280946804
1.2990933622464145        0.3061314722178749       0.3061437737594926       2.0959687333496624E-5    1.5307781044635609       0.3062522155920639       -0.3060845380933939      1.5306104269648935       -1.5306104269648935      0.3060845380933939       -0.3062522155920639      -1.5307781044635609
1.3277167966202057        0.31287640510250847      0.3128886775681802       2.096314886723162E-5     1.5645026955050256       0.31299707509499447      -0.3128293699040548      1.5643349903140884       -1.5643349903140884      0.3128293699040548       -0.31299707509499447     -1.5645026955050256
1.3977585432934103        0.3293813040071403       0.3293935076038295       2.096238416370369E-5     1.6470269803624238       0.3295017643338645       -0.32933406526055325     1.646859281289114        -1.646859281289114       0.32933406526055325      -0.3295017643338645      -1.6470269803624236
1.4175339708447308        0.33404125663145057      0.33405344389299074      2.0960039005644623E-5    1.670326685097896        0.3341616585720953       -0.33399397826004856     1.6701590047858503       -1.6701590047858503      0.33399397826004856      -0.3341616585720953      -1.670326685097896
1.4267865354208757        0.3362215641098256       0.33623374372844517      2.0958941748644086E-5    1.6812281951719814       0.3363419387326806       -0.3361742671986899      1.6810605236379919       -1.6810605236379919      0.3361742671986899       -0.3363419387326806      -1.6812281951719814
1.4529024136227024        0.34237560764636743      0.3423877616701302       2.0960505470324006E-5    1.711998342325007        0.34249591173953847      -0.3423282276957747      1.7118306582812435       -1.7118306582812435      0.3423282276957747       -0.34249591173953847     -1.711998342325007
1.496797897528371         0.35271930418704717      0.3527314151910569       2.0963133768655585E-5    1.7637167064823398       0.3528394897341524       -0.35267178466400245     1.7635490014121897       -1.7635490014121897      0.35267178466400245      -0.3528394897341524      -1.7637167064823398
1.5409609411620575        0.3631260547762213       0.36313811500324217      2.0965350706976874E-5    1.8157503159649975       0.36324609686011333      -0.36307837405445703     1.8155825931593406       -1.8155825931593406      0.36307837405445703      -0.36324609686011333     -1.8157503159649973
1.5896485193894017        0.3745989832668577       0.3746109924043154       2.0965069584045083E-5    1.873114804024998        0.3747188709575682       -0.3745511504008957      1.8729470834683248       -1.8729470834683248      0.3745511504008957       -0.3747188709575682      -1.873114804024998
1.6286245783102475        0.3837834569299481       0.3837954402217103       2.09732032338632E-5      1.9190371273379627       0.38390329961817105      -0.38373551399229977     1.918869341712091        -1.918869341712091       0.38373551399229977      -0.38390329961817105     -1.9190371273379627
1.6705400220595144        0.3936605789338352       0.3936725344307451       2.0981950283985393E-5    1.968422688961042        0.3937803732257018       -0.3936125176234292      1.96825483335877         -1.96825483335877        0.3936125176234292       -0.3937803732257018      -1.968422688961042
1.6916940808110035        0.39864540241478535      0.3986573368759759       2.0982897145999536E-5    1.9933467470460826       0.3987651373869417       -0.398597274209773       1.9931788838689144       -1.9931788838689144      0.398597274209773        -0.3987651373869417      -1.9933467470460826
1.712258713003542         0.4034913270875751       0.4035032408162851       2.0983191883203797E-5    2.017576309391538        0.40361100104123837      -0.40344313550617206     2.0174084438564726       -2.0174084438564726      0.40344313550617206      -0.40361100104123837     -2.017576309391538
1.7571182506726128        0.41406219158761537      0.41407406009064435      2.098383482077113E-5     2.070430498786447        0.4141817324359856       -0.41401386175741883     2.070262628107881        -2.070262628107881       0.41401386175741883      -0.4141817324359856      -2.0704304987864464
1.7686084961217383        0.4167697954676472       0.41678165178657145      2.0983848246907636E-5    2.083968481687996        0.41688929981740763      -0.41672142903143167     2.083800610902021        -2.083800610902021       0.41672142903143167      -0.41688929981740763     -2.0839684816879958
1.7714147303186303        0.4174310668594051       0.41744292020263557      2.098385152593833E-5     2.087274829732821        0.41755056229520043      -0.4173826914829923      2.0871069589206135       -2.0871069589206135      0.4173826914829923       -0.41755056229520043     -2.0872748297328205
1.7802285262934945        0.41950798795969546      0.4195198419446767       2.0989121449948092E-5    2.097659458239221        0.4196275064004391       -0.4194595934288388      2.097491545267621        -2.097491545267621       0.4194595934288388       -0.4196275064004391      -2.09765945823922
1.7936414405138927        0.4226686632443268       0.4226805137623843       2.0994942583653798E-5    2.113462847546141        0.42278819456883426      -0.42262023502816426     2.1132948880054716       -2.1132948880054716      0.42262023502816426      -0.42278819456883426     -2.1134628475461406
1.8176021818045214        0.42831488100679793      0.4283267233658763       2.100949040195364E-5     2.1416939700728324       0.42843444604564107      -0.4282663701224247      2.141525894149617        -2.141525894149617       0.4282663701224247       -0.42843444604564107     -2.141693970072832
1.904861915853509         0.4488771375543231       0.44888891980182094      2.103083772499962E-5     2.2445051578650084       0.4489966076477163       -0.4488283609459156      2.2443369111632094       -2.2443369111632094      0.4488283609459156       -0.4489966076477163      -2.2445051578650084
1.9295906492810744        0.4547043166454763       0.45471595589176905      2.1019279897136443E-5    2.273640578085848        0.45482331150394295      -0.4546551572647652      2.273472423846672        -2.273472423846672       0.4546551572647652       -0.45482331150394295     -2.273640578085848
1.9575417011261311        0.46129074171999135      0.461302157190312        2.1018532846706246E-5    2.306572029142305        0.46140906226234         -0.46124091399956574     2.306403880879532        -2.306403880879532       0.46124091399956574      -0.46140906226234        -2.306572029142305
1.9672424748366115        0.4635766456481544       0.4635879834541323       2.101827357320514E-5     2.318001314752998        0.46369473216038115      -0.4635265859717949      2.3178331685644133       -2.3178331685644133      0.4635265859717949       -0.46369473216038115     -2.318001314752998
1.9882605237854525        0.4685293513816725       0.4685406575322104       2.1043895252688058E-5    2.342764850940987        0.46864744541429687      -0.46847909425227485     2.342596499778966        -2.342596499778966       0.46847909425227485      -0.46864744541429687     -2.342764850940987
2.016161233148552         0.47510389136719594      0.47511515549626754      2.1077907117176935E-5    2.375637560851663        0.47522199538287935      -0.4750533721259416      2.3754689375947264       -2.3754689375947264      0.4750533721259416       -0.47522199538287935     -2.375637560851663
2.047114216879739         0.48239765925255473      0.48240889182443236      2.1127036631401162E-5    2.4121065021249324       0.4825158651147134       -0.482346848821662       2.411937485831882        -2.411937485831882       0.482346848821662        -0.4825158651147134      -2.4121065021249324
2.0582574353823686        0.48502354080807075      0.485034779542171        2.10843002689462E-5      2.42523575744373         0.4851415942114471       -0.48497291980929536     2.4250670830415797       -2.4250670830415797      0.48497291980929536      -0.4851415942114471      -2.42523575744373
2.0736428914558025        0.4886490988384457       0.4886603460807345       2.1025294118503894E-5    2.443363337095569        0.4887669417417858       -0.4885987393888375      2.443195134742622        -2.443195134742622       0.4885987393888375       -0.4887669417417858      -2.443363337095569
2.110901468293964         0.4974289928704957       0.4974405028934005       2.0928815609810945E-5    2.4872632096836327       0.49754723820164937      -0.4973798076767706      2.487095779158755        -2.487095779158755       0.4973798076767706       -0.49754723820164937     -2.4872632096836327
2.1178854161214242        0.49907474338095703      0.4990863026608724       2.0910731159773637E-5    2.4954920376691705       0.49919306414534215      -0.49902577829606376     2.4953247518198927       -2.4953247518198927      0.49902577829606376      -0.49919306414534215     -2.4954920376691705
2.158151761007099         0.5085628953053155       0.5085753801997643       2.127278121776769E-5     2.5429370223347956       0.5086854411135332       -0.5085152588637907      2.5427668400850543       -2.5427668400850543      0.5085152588637907       -0.5086854411135332      -2.5429370223347956
2.1836553081892602        0.5145724184185114       0.5145854895706401       2.1502093333417016E-5    2.5729873139222774       0.5146976402482311       -0.5145256235015634      2.572815297175611        -2.572815297175611       0.5145256235015634       -0.5146976402482311      -2.5729873139222774
2.244832477477113         0.5289886974130169       0.5290027732034982       2.1918970099536416E-5    2.6450733903169263       0.5291186006648593       -0.5289432489040622      2.644898038556131        -2.644898038556131       0.5289432489040622       -0.5291186006648593      -2.6450733903169263
2.245256944093369         0.5290887197348122       0.5291027991265131       2.1921174727058013E-5    2.645573521548072        0.5292186426088235       -0.5290432732110064      2.6453981521502565       -2.6453981521502565      0.5290432732110064       -0.5292186426088235      -2.645573521548072
2.24546595951254          0.5291379724135594       0.5291520675478009       2.192284895791384E-5     2.6458198388663527       0.5292679492121158       -0.5290925664204519      2.645644456074691        -2.645644456074691       0.5290925664204519       -0.5292679492121158      -2.6458198388663527
2.2456800008692603        0.5291884094110929       0.5292025206664165       2.192456344694652E-5     2.646072079075223        0.5293184414308518       -0.5291430449232756      2.645896682567648        -2.645896682567648       0.5291430449232756       -0.5293184414308518      -2.646072079075223
2.341827654137111         0.5518460259972351       0.5518684091386871       2.2547406056629658E-5    2.759387469034759        0.552003365045818        -0.5518229857973644      2.759207089786306        -2.759207089786306       0.5518229857973644       -0.552003365045818       -2.759387469034759
2.354116882718318         0.5547421992239725       0.5547655589614506       2.260026022286865E-5     2.7738714763731895       0.554902679477299        -0.5547218773955154      2.7736906742914065       -2.7736906742914065      0.5547218773955154       -0.554902679477299       -2.7738714763731895
2.3726284720653146        0.559104781390694        0.5591296122005402       2.2679875848394954E-5    2.795689118886403        0.5592699933236275       -0.5590885543168397      2.795507679879616        -2.795507679879616       0.5590885543168397       -0.5592699933236275      -2.795689118886403
2.5                       0.5891219972936713       0.5891654627276468       2.3586386496406312E-5    2.945834728316269        0.5893467391415842       -0.5891580480496124      2.9456460372242974       -2.9456460372242974      0.5891580480496124       -0.5893467391415842      -2.945834728316269
2.57330349707549          0.5560246085133216       0.5559944410476758       2.869680831443645E-4     2.781180412502249        0.5570819784489626       -0.5547862337838073      2.7788846678370938       -2.7788846678370938      0.5547862337838073       -0.5570819784489626      -2.7811804125022483
2.589208387775458         0.5492610238197109       0.5495821043528486       1.1127996491155402E-4    2.747713480557614        0.5506693852787712       -0.5497791455594785      2.7468232408383217       -2.7468232408383217      0.5497791455594785       -0.5506693852787712      -2.747713480557614
2.609453547294027         0.5406580824135989       0.541094780817102        -7.334928755558753E-5    2.7043071101282816       0.5416747804738866       -0.5422615747743309      2.704893904428727        -2.704893904428727       0.5422615747743309       -0.5416747804738866      -2.7043071101282816
2.6244181219096703        0.5345872699976713       0.5348620308233012       1.303897152418994E-4     2.6742821913262143       0.5359331113355293       -0.5348899936135937      2.6732390736042797       -2.6732390736042797      0.5348899936135937       -0.5359331113355293      -2.6742821913262134
2.6466069941360533        0.5255857123545596       0.5256203586218835       4.3248575316594983E-4    2.629762443587434        0.5274195941691949       -0.523959708143867       2.6263025575621066       -2.6263025575621066      0.523959708143867        -0.5274195941691949      -2.6297624435874334
2.6491626701653366        0.5246160401380958       0.5246820378396879       4.2986760140484314E-4    2.6249976642008748       0.5265335036484919       -0.5230945628372529      2.621558723389637        -2.621558723389637       0.5230945628372529       -0.5265335036484919      -2.6249976642008743
2.6500349916354886        0.5242815137451998       0.524357542807115        4.244300327438677E-4     2.62333337604272         0.5262073210619214       -0.52281188079997        2.61993793578077         -2.61993793578077        0.52281188079997         -0.5262073210619214      -2.6233333760427198
2.6784167754753136        0.5133973889165019       0.5137997975415146       2.4751371962924724E-4    2.5691842253360653       0.5155946696700576       -0.5136145599130233      2.567204115579032        -2.567204115579032       0.5136145599130233       -0.5155946696700576      -2.569184225336065
2.707909838881557         0.5020963514732354       0.5023550176182388       1.2048856236601246E-4    2.5117397100506516       0.5033543041577102       -0.5023903956587817      2.5107758015517243       -2.5107758015517243      0.5023903956587817       -0.5033543041577102      -2.5117397100506516
2.718907094548797         0.49788246577554485      0.4980875337988091       7.312392915196833E-5     2.4903200286641254       0.4987901655619462       -0.4982051741287301      2.4897350372309104       -2.4897350372309104      0.4982051741287301       -0.4987901655619462      -2.4903200286641254
2.7199104911966163        0.4975173128353324       0.49770090209240253      9.161399846507531E-5     2.4885037879417333       0.49843453660040393      -0.49770162461268297     2.4877708759540136       -2.4877708759540136      0.49770162461268297      -0.49843453660040393     -2.4885037879417333
2.7219451352103574        0.4968180414225159       0.497002565951525        1.0089611358387907E-4    2.485047365153943        0.49777519946387927      -0.49696803055520783     2.4842401962452727       -2.4842401962452727      0.49696803055520783      -0.49777519946387927     -2.485047365153943
2.734522191881456         0.49241229843154816      0.4925632053357433       1.378455372248238E-4     2.4630655950192257       0.4934164012930336       -0.49231363699523456     2.4619628307214283       -2.4619628307214283      0.49231363699523456      -0.4934164012930336      -2.4630655950192257
2.7882748364560612        0.4735827468700344       0.4735899765781002       2.957623923481685E-4     2.3691184730437618       0.4747874855636248       -0.4724213864248391      2.366752373904978        -2.366752373904978       0.4724213864248391       -0.4747874855636248      -2.3691184730437618
2.7932139882571807        0.47184671758162394      0.47188489505455544      3.055715050281834E-4     2.3605704063470263       0.47318353602053126      -0.4707389639803054      2.3581258343068026       -2.3581258343068026      0.4707389639803054       -0.47318353602053126     -2.3605704063470263
2.7983253401811368        0.4701593508193329       0.47024051022128577      2.713043419722392E-4     2.3521254496704116       0.47148804639308073      -0.46931761165730246     2.3499550149346353       -2.3499550149346353      0.46931761165730246      -0.47148804639308073     -2.3521254496704116
2.8283606418035667        0.4601561312700617       0.460207368218244        -5.8884078901114524E-5   2.300698830879251        0.46007430579900477      -0.46054537843021326     2.3011699035104605       -2.3011699035104605      0.46054537843021326      -0.46007430579900477     -2.300698830879251
2.8457664717430666        0.454767299988752        0.4545967292779753       -1.4215768710473158E-4   2.272756157063011        0.4536869571080036       -0.45482421860484107     2.27389341855985         -2.27389341855985        0.45482421860484107      -0.4536869571080036      -2.272756157063011
2.8732708305769994        0.4459416992933682       0.4457801139980149       1.2765924721215756E-4    2.2297343775696303       0.4459675803961575       -0.4449463064184599      2.2287131035919336       -2.2287131035919336      0.4449463064184599       -0.4459675803961575      -2.2297343775696303
2.877754574706901         0.44468521538013306      0.4444139151048978       1.755855839054932E-4     2.2233145184105823       0.4445736568900497       -0.44316897221880536     2.221909833739338        -2.221909833739338       0.44316897221880536      -0.4445736568900497      -2.2233145184105823
2.8851759210701173        0.4424753548558001       0.4421242768608008       1.850256751368517E-4     2.2120636429945506       0.4421622235713502       -0.440682018170255       2.2105834375934563       -2.2105834375934563      0.440682018170255        -0.4421622235713502      -2.2120636429945506
2.8970367438266975        0.43866496507592595      0.4384833450027693       5.8394758191645125E-5    2.193013544192927        0.438353683889223        -0.4378865258236895      2.192546386127394        -2.192546386127394       0.4378865258236895       -0.438353683889223       -2.193013544192927