% Model:              Sphere_potential.mph
% Version:            COMSOL 6.2.0.278
% Date:               Oct 11 2024, 12:27
% Dimension:          1
% Nodes:              776
% Expressions:        11
% Description:        Line graph
% Arc length (m)          Magnetic scalar potential Magnetic scalar potential Magnetic scalar potential Magnetic scalar potential Magnetic scalar potential Magnetic scalar potential Magnetic scalar potential Magnetic scalar potential Magnetic scalar potential Magnetic scalar potential Magnetic scalar potential
0                         8.64531201660466E-6      2.2163235898259264E-5    2.0976183541585817E-5    1.6768506589417455E-4    1.3310381782824163E-4    3.470565050533482E-5     -1.2440243891184005E-7   1.2440243890229907E-7    -3.4705650505336555E-5   -1.3310381782824163E-4   -1.676850658941572E-4
0.04443748713142022       0.010480010739471825     2.219110733851868E-5     0.010492422914074512     0.06299628645725738      0.021076243499370404     0.06286313981322701      -0.02094309685533971     0.020943096855339703     -0.06286313981322703     -0.021076243499370404    -0.06299628645725737
0.10625857011383913       0.0250476908966384       2.2228225460626735E-5    0.025060216492857525     0.15040293244108915      0.050212168854535756     0.15026956308832612      -0.05007879950177251     0.05007879950177251      -0.15026956308832615     -0.050212168854535756    -0.15040293244108915
0.13467025842136965       0.03174269473710686      2.224528418016177E-5     0.03175527245954989      0.19057321516495423      0.06360243621652695      0.19043974345987397      -0.06346896451144653     0.06346896451144653      -0.19043974345987402     -0.06360243621652695     -0.19057321516495423
0.20449639403039488       0.048196707672830894     2.2289320825498102E-5    0.048209412490337805     0.28929793326949016      0.09651110257816652      0.2891641973445379       -0.09637736665321422     0.09637736665321424      -0.28916419734453797     -0.09651110257816652     -0.28929793326949016
0.28659794462128146       0.06754332998295588      2.2339449127307953E-5    0.06755618628446372      0.40537842345114905      0.1352051035193257       0.40524438675638597      -0.13507106682456238     0.13507106682456244      -0.40524438675638597     -0.1352051035193257      -0.40537842345114905
0.3116306510899753        0.07344210185711095      2.235473321215726E-5     0.07345500434598679      0.44077128529780596      0.1470028778693624       0.4406371568985338       -0.14686874947008996     0.14686874947009002      -0.4406371568985338      -0.1470028778693624      -0.44077128529780596
0.4339120771068057        0.10225681302028519      2.242895489532829E-5     0.102269941746443        0.6136606798910285       0.20463342780988783      0.6135261061616574       -0.20449885408051646     0.20449885408051655      -0.6135261061616574      -0.20463342780988783     -0.6136606798910285
0.45751237403435635       0.10781804778222204      2.2443018501418742E-5    0.10783122018499111      0.6470283053599128       0.2157561142310248       0.6468936472489053       -0.21562145612001687     0.21562145612001699      -0.6468936472489053      -0.2157561142310248      -0.6470283053599128
0.4816406633973402        0.11350370004174308      2.2457396742428873E-5    0.11351691709826876      0.6811424406667884       0.2271276404998163       0.6810076962863347       -0.2269928961193623      0.2269928961193624       -0.6810076962863347      -0.2271276404998163      -0.6811424406667884
0.5432360065350035        0.12801818500320145      2.249292332397873E-5     0.1280315175206125       0.7682299188588246       0.256157178846019        0.7680949613188816       -0.25602222130607577     0.2560222213060758       -0.7680949613188816      -0.256157178846019       -0.7682299188588246
0.5573170124442024        0.13133626921539357      2.2500901876321838E-5    0.1313496280522583       0.7881385533454491       0.26279347648387497      0.788003547934192        -0.26265847107261764     0.2626584710726177       -0.788003547934192       -0.26279347648387497     -0.7881385533454491
0.5808035663320239        0.13687070095157142      2.2514678255638673E-5    0.1368841038701327       0.8213453614184403       0.2738625576121547       0.8212102733489075       -0.2737274695426215      0.2737274695426215       -0.8212102733489075      -0.2738625576121547      -0.8213453614184403
0.6482034707275363        0.1527529862053174       2.25535468407795E-5      0.1527665163195619       0.9166396983294046       0.3056277535081354       0.9165043770483612       -0.30549243222709105     0.30549243222709105      -0.9165043770483612      -0.3056277535081354      -0.9166396983294046
0.658805940305694         0.15525137917273996      2.2559644254416863E-5    0.1552649293283429       0.9316301545916146       0.31062463790065536      0.9314947967260895       -0.31048928003512916     0.31048928003512916      -0.9314947967260895      -0.31062463790065536     -0.9316301545916146
0.6667765069524356        0.15712958382211878      2.2564228077210854E-5    0.15714314904411567      0.9428994565049318       0.3143811212164572       0.9427640711364699       -0.3142457358479942      0.3142457358479942       -0.9427640711364699      -0.3143811212164572      -0.9428994565049318
0.7028521793572943        0.16563054792643395      2.2585495183185568E-5    0.16564418064856004      0.9939055749326575       0.33138338322692257      0.9937700619615599       -0.3312478702558236      0.3312478702558236       -0.9937700619615599      -0.33138338322692257     -0.9939055749326575
0.7186161507942029        0.1693452104315315       2.25946325376913E-5      0.1693588728113437       1.016193696006051        0.33881285427992575      1.016058128210826        -0.3386772864846997      0.33867728648469964      -1.016058128210826       -0.33881285427992575     -1.016193696006051
0.7218953790716564        0.17011793605347605      2.2596614157557003E-5    0.17013160453786794      1.0208300801008965       0.3403583358869933       1.0206945004159527       -0.340222756202048       0.34022275620204795      -1.0206945004159527      -0.3403583358869933      -1.0208300801008965
0.7570602294217215        0.17840427025109054      2.26184652950157E-5      0.1784180043554746       1.0705484133199643       0.3569313323156033       1.0704127025281958       -0.35679562152383304     0.35679562152383304      -1.0704127025281958      -0.3569313323156033      -1.070548413319964
0.7704382090158808        0.1815566902501362       2.2626451500316717E-5    0.18157044954638796      1.0894630580403248       0.3632362970397812       1.0893272993313243       -0.36310053833077915     0.36310053833077915      -1.0893272993313243      -0.3632362970397812      -1.0894630580403248
0.9312032427133292        0.21943976394871625      2.2720849239873248E-5    0.2194538253391311       1.316762991801676        0.4390039360068125       1.3166266667062378       -0.4388676109113728      0.4388676109113728       -1.3166266667062378      -0.4390039360068125      -1.316762991801676
0.9429254658623288        0.22220201714608645      2.272792270658231E-5     0.22221610091522664      1.333336621721199        0.44452855313685447      1.3332002541849604       -0.44439218560061433     0.44439218560061433      -1.3332002541849604      -0.44452855313685447     -1.333336621721199
1.0131178288508944        0.23874231642478422      2.277027843868972E-5     0.2387565341971415       1.4325790804734504       0.47760981477431447      1.4324424588028188       -0.47747319310368164     0.47747319310368164      -1.4324424588028188      -0.47760981477431447     -1.4325790804734504
1.0695599203367363        0.25204247171306793      2.2800272185753007E-5    0.2520567934342324       1.5123805179796224       0.5042106311273521       1.5122437163465086       -0.504073829494237       0.5040738294942368       -1.5122437163465086      -0.5042106311273521      -1.5123805179796224
1.1520787137972186        0.2714873936422274       2.2849504114156802E-5    0.27150187424352934      1.6290508327709143       0.5431012582020056       1.6289137357462302       -0.5429641611773202      0.5429641611773202       -1.6289137357462302      -0.5431012582020056      -1.6290508327709143
1.1610996990292937        0.27361311947513606      2.2855045643182387E-5    0.2736276177360398       1.6418052750313605       0.547352797130817        1.6416681447575021       -0.5472156668569574      0.5472156668569574       -1.6416681447575021      -0.547352797130817       -1.6418052750313605
1.171744920380732         0.27612158490034505      2.286121457621519E-5     0.276136103433053        1.6568561671766306       0.5523698275752511       1.656718999889174        -0.5522326602877933      0.5522326602877933       -1.656718999889174       -0.5523698275752511      -1.6568561671766306
1.1890769891430883        0.2802057556327751       2.2871367261718262E-5    0.2802203070658914       1.6813613536309007       0.5605383310998012       1.681224125427331        -0.5604011028962302      0.5604011028962302       -1.681224125427331       -0.5605383310998012      -1.6813613536309007
1.2160603789727205        0.28656418340681455      2.288886164165775E-5     0.28657878744659016      1.7195121831849147       0.5732554495576572       1.7193748500150652       -0.5731181163878065      0.5731181163878065       -1.7193748500150652      -0.5732554495576572      -1.7195121831849147
1.2309136230339952        0.2900642367541785       2.2898425211627556E-5    0.29007886869373933      1.740512643558949        0.5802556965422361       1.74037525300768         -0.5801183059909656      0.5801183059909656       -1.74037525300768        -0.5802556965422361      -1.740512643558949
1.287765137182141         0.30346086119366467      2.293503024087336E-5     0.3034755999210109       1.8208929271620953       0.6070494823874377       1.8207553169806507       -0.6069118722059917      0.6069118722059917       -1.8207553169806507      -0.6070494823874377      -1.8208929271620953
1.3140891943405957        0.3096639216028719       2.2952768441856716E-5    0.3096787108364102       1.8581115448567098       0.6194558584452231       1.8579738282460592       -0.6193181418345713      0.6193181418345713       -1.8579738282460592      -0.6194558584452231      -1.8581115448567098
1.3836748744592584        0.3260612468172111       2.300064421956096E-5     0.32607616862083544      1.956496170050422        0.6522511827815787       1.9563581661851053       -0.6521131789162604      0.6521131789162604       -1.9563581661851053      -0.6522511827815787      -1.956496170050422
1.4142045078504923        0.333255317875178        2.3021648971392923E-5    0.3332702978418629       1.9996608920647212       0.6666396205640102       1.9995227621708933       -0.6665014906701809      0.6665014906701809       -1.9995227621708933      -0.6666396205640102      -1.9996608920647212
1.446708624215967         0.34091465176315133      2.3045314194664935E-5    0.34092969453976757      2.0456172176279566       0.6819586105753522       2.045478945742789        -0.6818203386901834      0.6818203386901832       -2.045478945742789       -0.6819586105753522      -2.0456172176279566
1.4500475948124325        0.3417014551170592       2.304703237635691E-5     0.3417165021274108       2.0503380598408905       0.6835322393726544       2.0501997776466325       -0.6833939571783955      0.6833939571783952       -2.0501997776466325      -0.6835322393726544      -2.0503380598408905
1.453352441453544         0.3424802174170718       2.3048732998397453E-5    0.3424952686178905       2.0550106555047005       0.6850897858364138       2.0548723631067105       -0.6849514934384227      0.6849514934384224       -2.0548723631067105      -0.6850897858364138      -2.0550106555047005
1.5522617939844225        0.3657874602861727       2.3080166976685926E-5    0.36580261930253244      2.194854638283405        0.731704797138715        2.1947161572815452       -0.7315663161368539      0.7315663161368536       -2.1947161572815452      -0.731704797138715       -2.194854638283405
1.6196087510174408        0.3816572638662168       2.3115808094612694E-5    0.3816724884886823       2.290073829111446        0.7634447736465798       2.289935134262879        -0.7633060787980112      0.7633060787980109       -2.289935134262879       -0.7634447736465798      -2.290073829111446
1.6388651981026359        0.3861948842989025       2.3130288935276425E-5    0.3862101415393029       2.3172997256218224       0.772520188426213        2.317160943888211        -0.7723814066926005      0.7723814066926002       -2.317160943888211       -0.772520188426213       -2.3172997256218224
1.6396739925683117        0.38638546993897693      2.3130897148395183E-5    0.3864007285493708       2.3184432467668827       0.7729013670109749       2.3183044613839923       -0.7727625816280838      0.7727625816280834       -2.3183044613839923      -0.7729013670109749      -2.3184432467668823
1.6805693573777543        0.3960221586048193       2.3145353072351327E-5    0.3960374497986779       2.3762635524635676       0.7921749180442903       2.3761246803451335       -0.7920360459258554      0.7920360459258553       -2.3761246803451335      -0.7921749180442903      -2.376263552463567
1.7579390523131009        0.4142537532936429       2.318905891628663E-5     0.4142690971653608       2.485653462425478        0.8286384492509062       2.48551432807198         -0.8284993148974077      0.8284993148974076       -2.48551432807198        -0.8286384492509062      -2.485653462425478
1.7587068221897684        0.41443467235943937      2.318970604784417E-5     0.4144500171828123       2.4867389825682715       0.829000293130514        2.486599844331984        -0.828861154894226       0.828861154894226        -2.486599844331984       -0.829000293130514       -2.4867389825682715
1.7700993728472318        0.41711923929104927      2.319930850725252E-5     0.417134598235552        2.502846469449828        0.8343695122856309       2.5027072735987845       -0.8342303164345866      0.8342303164345863       -2.5027072735987845      -0.8343695122856309      -2.502846469449828
1.8088769207710858        0.4262568708035309       2.3200551366348108E-5    0.42627224280544174      2.5576723144829274       0.852644831268804        2.5575331111747293       -0.8525056279606049      0.8525056279606048       -2.5575331111747293      -0.852644831268804       -2.5576723144829274
1.8130685197557228        0.4272445766774504       2.3208033337753604E-5    0.4272599608032689       2.5635986206679897       0.8546203139581876       2.5634593724679626       -0.8544810657581601      0.8544810657581599       -2.5634593724679626      -0.8546203139581876      -2.5635986206679897
1.8251037415953753        0.43008058370100344      2.3236705980434966E-5    0.43009598513939157      2.5806148180775144       0.8602924832735002       2.580475397841631        -0.8601530630376165      0.8601530630376165       -2.580475397841631       -0.8602924832735002      -2.5806148180775144
1.884373440402126         0.444047030214354        2.3377909766947747E-5    0.44406251691172594      2.6644142618049127       0.8882261409474963       2.6642739943463107       -0.8880858734888939      0.8880858734888938       -2.6642739943463107      -0.8882261409474963      -2.6644142618049127
1.9239467956605019        0.45337221215404944      2.342798687924143E-5     0.45338770489437247      2.720365527846227        0.9068766792300287       2.7202249599249515       -0.9067361113087526      0.9067361113087524       -2.7202249599249515      -0.9068766792300287      -2.720365527846227
2.0210665838114217        0.47625800660763085      2.3379110997313792E-5    0.4762732560704065       2.8576791748298795       0.9526471483993562       2.857538900163896        -0.9525068737333717      0.9525068737333715       -2.857538900163896       -0.9526471483993562      -2.8576791748298795
2.0259024328243913        0.4773975608957763       2.3386125137945385E-5    0.4774127924445843       2.8645164499453037       0.9549262063621983       2.864376133194476        -0.9547858896113701      0.9547858896113699       -2.864376133194476       -0.9549262063621983      -2.8645164499453037
2.0412620300630877        0.48101698494074857      2.339187955823982E-5     0.48103216311084834      2.886232797963566        0.9621648582005708       2.8860924466862157       -0.9620245069232208      0.9620245069232207       -2.8860924466862157      -0.9621648582005708      -2.8862327979635656
2.055852661470738         0.48445520544402637      2.339734588810167E-5     0.4844703329077798       2.906861934556837        0.9690411127807308       2.9067215504815076       -0.9689007287054017      0.9689007287054016       -2.9067215504815076      -0.9690411127807308      -2.9068619345568365
2.1049585599126166        0.4960281552396756       2.276648517049863E-5     0.49604296742076714      2.976296479617931        0.9921838586592285       2.9761598807069083       -0.9920472597482051      0.992047259748205        -2.9761598807069083      -0.9921838586592285      -2.9762964796179308
2.1106433666789686        0.4973679124866146       2.2693452777452746E-5    0.4973826881686079       2.9843346580059933       0.9948630080595345       2.984198497289329        -0.9947268473428694      0.9947268473428693       -2.984198497289329       -0.9948630080595345      -2.984334658005993
2.114175368141751         0.49820032183353025      2.2648645874902285E-5    0.49821506130000476      2.989328834804704        0.9965275474705828       2.9891929429294546       -0.9963916555953329      0.9963916555953329       -2.9891929429294546      -0.9965275474705828      -2.989328834804704
2.117643865431581         0.49901769284922004      2.26204492780296E-5      0.499032420743414        2.99423293001993         0.9981621586230498       2.994097207324262        -0.9980264359273812      0.9980264359273812       -2.994097207324262       -0.9981621586230498      -2.9942329300199297
2.145968940537637         0.505692695556265        2.2444968314170102E-5    0.5057073215959208       3.034282012401156        1.011511230176096        3.034147342591271        -1.0113765603662102      1.0113765603662102       -3.034147342591271       -1.011511230176096       -3.034282012401156
2.2039017743138247        0.519344974352877        2.208605983919712E-5     0.5193593920710368       3.116193775169419        1.0388138777579106       3.1160612588103835       -1.0386813613988748      1.0386813613988748       -3.1160612588103835      -1.0388138777579106      -3.116193775169419
2.223097373151749         0.5238702824472509       2.2165030103783387E-5    0.5238840248753256       3.143343159486116        1.047862029697112        3.143210169305493        -1.0477290395164889      1.0477290395164889       -3.143210169305493       -1.047862029697112       -3.143343159486116
2.261118493026848         0.532833653841949        2.2321448141131468E-5    0.5328460587089772       3.1971185068642307       1.0657838914964342       3.196984578175383        -1.0656499628075868      1.0656499628075868       -3.196984578175383       -1.0657838914964342      -3.1971185068642307
2.3070876840708756        0.5436703174124744       2.252450345330108E-5     0.5436815597762112       3.262134447440154        1.0874531777902559       3.2619993004194336       -1.0873180307695358      1.0873180307695358       -3.2619993004194336      -1.0874531777902559      -3.262134447440154
2.351950887156912         0.5542453281613322       2.2927098849449302E-5    0.5542557463160709       3.3255824228834965       1.1086011102381677       3.3254448602904          -1.1084635476450704      1.1084635476450704       -3.3254448602904         -1.1086011102381677      -3.3255824228834965
2.5                       0.5891563385368072       2.5781940754958298E-5    0.5891593609057207       3.5350274665187627       1.1784021123715336       3.5348727748742323       -1.1782474207270035      1.1782474207270035       -3.5348727748742323      -1.1784021123715336      -3.5350274665187627
2.547732007766529         0.5671699295911309       3.779646967529875E-5     0.5672017554523321       3.4032602704006156       1.134580552036092        3.4030334915825646       -1.13435377321804        1.13435377321804         -3.4030334915825646      -1.134580552036092       -3.4032602704006156
2.548168843653486         0.5669772619189595       3.513663372801696E-5     0.5670187625206988       3.402134983821898        1.1342259361460598       3.4019241640195306       -1.1340151163436916      1.1340151163436916       -3.4019241640195306      -1.1342259361460598      -3.402134983821898
2.552265109974688         0.5651705923657829       1.0195009799931001E-5    0.5653028142544309       3.391583026778688        1.130900657315557        3.3915218567198893       -1.1308394872567569      1.1308394872567569       -3.3915218567198893      -1.130900657315557       -3.391583026778688
2.56470544283355          0.5597844067838604       -9.225881805609423E-5    0.5598729903798587       3.358783998632987        1.1196463714975455       3.359337551541324        -1.1201999244058818      1.1201999244058818       -3.359337551541324       -1.1196463714975455      -3.358783998632987
2.5954640155266806        0.546402366768429        4.37417834788581E-5      0.5464481328847908       3.2787284904264573       1.093119023352741        3.278466039725585        -1.0928565726518678      1.0928565726518678       -3.278466039725585       -1.093119023352741       -3.2787284904264573
2.5988326634824404        0.5450027008150808       3.727726500082733E-5     0.5451163513154673       3.2705826386870336       1.0905718354267098       3.2703589750970288       -1.0903481718367047      1.0903481718367047       -3.2703589750970288      -1.0905718354267098      -3.2705826386870336
2.6045302198982703        0.5426353784242433       2.634351377081264E-5     0.5428638450505103       3.25680516759184         1.086263653894867        3.2566471065092157       -1.0861055928122416      1.0861055928122416       -3.2566471065092157      -1.086263653894867       -3.25680516759184
2.629410885655496         0.5324988305547449       -7.481566975766881E-5    0.5325903714104484       3.195134699742011        1.065139377523031        3.195583593760557        -1.0655882715415763      1.0655882715415763       -3.195583593760557       -1.065139377523031       -3.195134699742011
2.643196023286834         0.5268536500772903       4.3617882050494845E-5    0.5268984931878015       3.1614321265519383       1.0540175262427767       3.1611704192596353       -1.0537558189504734      1.0537558189504734       -3.1611704192596353      -1.0540175262427767      -3.1614321265519383
2.651251867263172         0.5237374987082761       1.7237839648316438E-4    0.5237393657232088       3.1429495954988376       1.0479996006657326       3.141915325119938        -1.0469653302868334      1.0469653302868334       -3.141915325119938       -1.0479996006657326      -3.1429495954988376
2.656592355829516         0.5216128443481842       2.4954339367566267E-4    0.5215763767201566       3.130279825758022        1.043828448365285        3.1287825653959676       -1.0423311880032309      1.0423311880032309       -3.1287825653959676      -1.043828448365285       -3.130279825758022
2.6624109913904768        0.5192979644901332       3.3361716167421875E-4    0.5192197300248632       3.116475700564742        1.039283842604209        3.1144739975946965       -1.0372821396341636      1.0372821396341636       -3.1144739975946965      -1.039283842604209       -3.116475700564742
2.6756899409574832        0.5141956361061265       3.0287787737188067E-4    0.5140008426821988       3.085303276573163        1.0285207321486576       3.0834860093089325       -1.0267034648844262      1.0267034648844262       -3.0834860093089325      -1.0285207321486576      -3.085303276573163
2.6890648340781347        0.509103893109222        9.934821806031934E-5     0.5091320673141806       3.055034100129347        1.0186185276924593       3.0544380108209856       -1.018022438384097       1.018022438384097        -3.0544380108209856      -1.0186185276924593      -3.055034100129347
2.690928031046987         0.508374052170827        6.813644188093451E-5     0.5084298524954106       3.0506719236489386       1.0171757149656309       3.0502631049976534       -1.0167668963143448      1.0167668963143448       -3.0502631049976534      -1.0171757149656309      -3.0506719236489386
2.7030137392286337        0.5038164149369944       2.7263212139435125E-4    0.5037640352711678       3.0235068673228422       1.0082412075748648       3.021871074594477        -1.0066054148464985      1.0066054148464985       -3.021871074594477       -1.0082412075748648      -3.0235068673228422
2.719612426204658         0.4977825835303435       2.752300575350789E-4     0.4975550764873505       2.9866111631826935       0.9954808290613196       2.984959782837484        -0.9938294487161088      0.9938294487161088       -2.984959782837484       -0.9954808290613196      -2.9866111631826935
2.7268778008930976        0.49516730429473355      1.8262639396029274E-4    0.49504803431861477      2.9710746250458064       0.990405407866872        2.9699788666820455       -0.98930964950311        0.98930964950311         -2.9699788666820455      -0.990405407866872       -2.9710746250458064
2.7386600388071396        0.49061228664521195      -5.175327857317958E-6    0.49069082293992444      2.943972339066549        0.9815231924857011       2.944003391033694        -0.9815542444528447      0.9815542444528448       -2.944003391033694       -0.9815231924857011      -2.943972339066549
2.743616487066793         0.488802084336569        -2.143331454996665E-5    0.4890604408263852       2.9337816320350285       0.9785732946887521       2.9339102319223294       -0.9787018945760516      0.9787018945760516       -2.9339102319223294      -0.9785732946887521      -2.9337816320350285
2.7494790540488445        0.48668042466280426      -1.2688165536961764E-4   0.48711084646047154      2.921423590201385        0.974701891550168        2.9221848801336034       -0.9754631814823855      0.9754631814823855       -2.9221848801336034      -0.974701891550168       -2.921423590201385
2.758821771299388         0.48347912450168246      -6.284470869853892E-5    0.48384026443775396      2.9021307726282846       0.9682142746215547       2.9025078408804768       -0.9685913428737456      0.9685913428737456       -2.9025078408804768      -0.9682142746215547      -2.9021307726282846
2.7863920465672916        0.47375862935390567      7.574967962872001E-5     0.4738661235054436       2.843209001768472        0.9481744843528488       2.8427545036906996       -0.947719986275076       0.947719986275076        -2.8427545036906996      -0.9481744843528488      -2.843209001768472
2.798317219779016         0.4698727615424114       1.2698814295355456E-4    0.469837492863718        2.819476458968555        0.9399854127989089       2.818714530110834        -0.9392234839411876      0.9392234839411876       -2.818714530110834       -0.9399854127989089      -2.819476458968555
2.813398714570041         0.46474135414296636      1.1806723048804263E-6    0.4647601599943308       2.7885268902801696       0.9295614737083042       2.7885198062463408       -0.929554389674475       0.929554389674475        -2.7885198062463408      -0.9295614737083042      -2.7885268902801696
2.8150984291005132        0.4640821551057239       -1.930872398315446E-5    0.4641875999973105       2.7848567840287393       0.9285281636058436       2.784972636372639        -0.9286440159497427      0.9286440159497427       -2.784972636372639       -0.9285281636058436      -2.7848567840287393
2.8261412779515207        0.4606055999712183       -4.7174301577143445E-5   0.4607318218333779       2.7639969643712163       0.9215745644863432       2.7642800101806797       -0.921857610295806       0.921857610295806        -2.7642800101806797      -0.9215745644863432      -2.7639969643712163
2.8327644193172725        0.458713418178368        -3.104193307789478E-5    0.4587495647398878       2.7523319695170536       0.9174782968035815       2.752518221115521        -0.9176645484020488      0.9176645484020488       -2.752518221115521       -0.9174782968035815      -2.7523319695170536
2.8437082410650403        0.45513889065259605      4.599619144182676E-5     0.45509919746004013      2.730812559719678        0.910256997109293        2.7305365825710273       -0.909981019960642       0.909981019960642        -2.7305365825710273      -0.910256997109293       -2.730812559719678
2.8438608828753575        0.45509039623739295      4.7088232099634726E-5    0.4550484743770165       2.730515954679151        0.9101543697295783       2.7302334252865528       -0.9098718403369804      0.9098718403369804       -2.7302334252865528      -0.9101543697295783      -2.730515954679151
2.85421497817425          0.4519039732394708       1.3360674676759555E-4    0.4518223868748432       2.711498314218618        0.9038824212607338       2.710696673738012        -0.9030807807801282      0.9030807807801282       -2.710696673738012       -0.9038824212607338      -2.711498314218618
2.8542922585405153        0.4518801905786734       1.3425249922682206E-4    0.4517983081681503       2.7113563713276285       0.9038356090129345       2.7105508563322678       -0.9030300940175734      0.9030300940175734       -2.7105508563322678      -0.9038356090129345      -2.7113563713276285
2.8806433278826917        0.44372954596339664      3.9794605721155205E-5    0.4436379339069617       2.6621302113718035       0.8872120275182168       2.661891443737477        -0.8869732598838899      0.8869732598838899       -2.661891443737477       -0.8872120275182168      -2.6621302113718035