% Model:              Sphere_potential.mph
% Version:            COMSOL 6.2.0.278
% Date:               Oct 11 2024, 12:27
% Dimension:          1
% Nodes:              756
% Expressions:        11
% Description:        Line graph
% Arc length (m)          Magnetic scalar potential Magnetic scalar potential Magnetic scalar potential Magnetic scalar potential Magnetic scalar potential Magnetic scalar potential Magnetic scalar potential Magnetic scalar potential Magnetic scalar potential Magnetic scalar potential Magnetic scalar potential
0                         8.645312016605095E-6     2.21632358982577E-5      2.0976183541585817E-5    1.676850658941676E-4     1.331038178282451E-4     3.470565050532311E-5     -1.244024389109727E-7    1.244024388970949E-7     -3.470565050533298E-5    -1.331038178282451E-4    -1.67685065894152E-4
0.06306891016928828       -0.01248917655645029     0.009395474841737722     0.014081160616421527     0.05953271387799855      0.10948942010379994      0.003159864827572958     -0.05311657105337409     0.053116571053374084     -0.0031598648275729738   -0.10948942010379994     -0.05953271387799855
0.10466844106218787       -0.020732595713858337    0.015578004411988568     0.02335509768028341      0.09868921252938254      0.1816195953848161       0.005221186057452112     -0.0881515689128853      0.0881515689128853       -0.005221186057452143    -0.1816195953848161      -0.09868921252938254
0.1614929033382427        -0.031993008883661966    0.024023265174635523     0.03602318427390339      0.152176514852196        0.2801485503868436       0.008036923804384        -0.1360089593390316      0.1360089593390316       -0.008036923804384026    -0.2801485503868436      -0.15217651485219597
0.20424428831264982       -0.0404646818804362      0.030376982264160343     0.04555390762738457      0.1924172135411468       0.35427594106289095      0.010155319956185689     -0.17201404747793025     0.17201404747793025      -0.010155319956185717    -0.35427594106289095     -0.19241721354114674
0.20811395294229185       -0.041231499928077245    0.030952092409065282     0.04641658626459569      0.19605962242942399      0.3609856221417323       0.010347067975033236     -0.17527306768734194     0.17527306768734194      -0.010347067975033267    -0.3609856221417323      -0.19605962242942396
0.2424128618024039        -0.0480282187255824      0.03604960145248982      0.05406296877707886      0.2283442420146198       0.42045711691694876      0.012046633299681898     -0.20415950820201118     0.20415950820201123      -0.012046633299681923    -0.42045711691694876     -0.22834424201461978
0.27554541326042253       -0.05459381119785244     0.04097376497570484      0.061449330613363835     0.25953099498486476      0.47790623977627383      0.01368840513063669      -0.23206364992204614     0.2320636499220462       -0.01368840513063671     -0.47790623977627383     -0.25953099498486476
0.2778798421969585        -0.05505640488225946     0.04132070806674306      0.06196975346181837      0.2617283282829836       0.4819539478120207       0.01380407988252614      -0.2340296994115637      0.2340296994115637       -0.01380407988252616     -0.4819539478120207      -0.2617283282829836
0.3392672374485825        -0.0672210165439858      0.050444109350255686     0.07565507105462582      0.31951057918129844      0.5883946453572417       0.016845923079765273     -0.28572998925570825     0.28572998925570836      -0.016845923079765283    -0.5883946453572417      -0.3195105791812985
0.4137674842093737        -0.08198408827814091     0.06151634605346182      0.09226368514856761      0.3896356021983738       0.7175719553109383       0.020537525877603664     -0.34847387899016724     0.34847387899016735      -0.02053752587760367     -0.7175719553109383      -0.38963560219837384
0.4558053185703369        -0.0903143641381074      0.06776401331904594      0.10163533419727373      0.4292046484700176       0.7904621050224487       0.02262056855574265      -0.3838780251081723      0.38387802510817237      -0.022620568555742654    -0.7904621050224487      -0.4292046484700176
0.503461707111075         -0.09975802023973436     0.0748467104795913       0.11225954875584994      0.47406228598270456      0.873094366941644        0.024982023105157434     -0.424014104064095       0.42401410406409507      -0.024982023105157434    -0.873094366941644       -0.47406228598270456
0.5885411800286131        -0.1166174882025044      0.08749122947238794      0.13122662924765638      0.5541452290027805       1.0206151818128002       0.02919785216845333      -0.49566780497847107     0.49566780497847107      -0.029197852168453317    -1.0206151818128002      -0.5541452290027805
0.6076548692311567        -0.12040508372596229     0.09033190769777164      0.13548771443269733      0.5721364133721796       1.0537567482760308       0.030144967185550205     -0.5117653020893995      0.5117653020893995       -0.03014496718555019     -1.0537567482760308      -0.5721364133721796
0.6130765171652859        -0.12147944517696613     0.09113767333382267      0.1366963823875923       0.577239659197905        1.0631574399057715       0.030413619194969377     -0.516331399902834       0.516331399902834        -0.030413619194969363    -1.0631574399057715      -0.577239659197905
0.7186398496971396        -0.14239802474858038     0.10682650201310233      0.1602300054546428       0.6766034783607175       1.2461955773550413       0.035644466282103486     -0.6052365652764254      0.6052365652764253       -0.03564446628210349     -1.2461955773550413      -0.6766034783607175
0.7590964456011408        -0.1504149618464648      0.11283916336032176      0.16924914342056507      0.7146841400702963       1.3163439874561575       0.037649159908365454     -0.6393090072942251      0.6393090072942249       -0.03764915990836547     -1.3163439874561575      -0.7146841400702963
0.8015422542529398        -0.15882608394111936     0.11914746142500983      0.1787117444103799       0.7546371940343107       1.3899415297987898       0.03975242548425139      -0.6750567612487294      0.6750567612487292       -0.03975242548425141     -1.3899415297987898      -0.7546371940343107
0.8375610263693076        -0.16596361601013415     0.12450057145643693      0.18674154369231344      0.7885406571182976       1.4523951211588357       0.041537228379675314     -0.7053916924202124      0.7053916924202123       -0.041537228379675335    -1.4523951211588357      -0.7885406571182976
0.9138968741702487        -0.18109043593176166     0.13584560899150594      0.20375937601373245      0.860393459165927        1.5847552028929748       0.045319805216890295     -0.7696815489439373      0.7696815489439373       -0.045319805216890295    -1.5847552028929748      -0.860393459165927
0.9533831184920848        -0.188915086384545       0.1417140562355584       0.2125621897229117       0.897560754829235        1.653221100367416        0.04727641741588341      -0.8029367629540636      0.8029367629540635       -0.04727641741588342     -1.653221100367416       -0.897560754829235
0.9962757241721707        -0.19741474429220898     0.14808875572293273      0.22212439532167702      0.9379343598710923       1.7275933370399286       0.04940182553349416      -0.8390608027023305      0.8390608027023303       -0.04940182553349416     -1.7275933370399286      -0.9379343598710923
1.0044676133231047        -0.19903806067119986     0.14930623436613807      0.2239506432456797       0.9456451547387373       1.7417973974235368       0.04980774854190727      -0.8459599912267071      0.8459599912267068       -0.04980774854190727     -1.7417973974235368      -0.9456451547387373
1.0841323254285118        -0.21482453307159313     0.16114600463382736      0.24171058999522596      1.0206313077392042       1.8799294400255762       0.0537552799362382       -0.913053412222611       0.9130534122226108       -0.0537552799362382      -1.8799294400255762      -1.0206313077392042
1.0860811643407435        -0.21521071777293882     0.16143564104677383      0.24214505192166327      1.0224656952811015       1.8833085663728562       0.0538518490004566       -0.9146947200922122      0.914694720092212        -0.0538518490004566      -1.8833085663728562      -1.0224656952811015
1.0945347779420354        -0.21688589861815827     0.16269201767675073      0.24402964752107198      1.030422845878228        1.8979664403508603       0.05427073981772172      -0.921814334290355       0.9218143342903549       -0.05427073981772172     -1.8979664403508603      -1.030422845878228
1.124387264147701         -0.22280151179599214     0.1671286961880238       0.2506847738028617       1.0585221601835384       1.9497282073675062       0.055749983055393235     -0.9469560302393618      0.9469560302393616       -0.055749983055393235    -1.9497282073675062      -1.0585221601835384
1.2309603806859246        -0.2439201874303515      0.1829675908292231       0.2744435158724207       1.1588364611166517       2.1345172108380566       0.06103091614131089      -1.036711665862717       1.036711665862717        -0.06103091614131089     -2.1345172108380566      -1.1588364611166517
1.2749716552247858        -0.2526415222419086      0.189508545650563        0.28425511333608605      1.2002630458122179       2.2108291347798508       0.06321177190883753      -1.073777860876472       1.073777860876472        -0.06321177190883753     -2.2108291347798508      -1.2002630458122179
1.276334558302898         -0.25291159701214827     0.18971110029004523      0.2845589503651029       1.2015459083062527       2.213192296354844        0.0632793065659788       -1.0749256946145722      1.0749256946145722       -0.0632793065659788      -2.213192296354844       -1.2015459083062527
1.2767177513195327        -0.2529875310294392      0.1897680504779551       0.2846443770125313       1.2019065974251142       2.2138567215428697       0.063298294557381        -1.075248418675138       1.075248418675138        -0.063298294557381       -2.2138567215428697      -1.2019065974251142
1.2978767756121798        -0.2571804326788696      0.19291270634813715      0.28936143631332817      1.2218229989399865       2.2505447296554633       0.06434676085116181      -1.0930684915666402      1.09306849156664         -0.06434676085116181     -2.2505447296554633      -1.2218229989399865
1.2997837796818048        -0.25755832725465017     0.19319612544436132      0.2897865717618663       1.22361800887125         2.2538513178898496       0.06444125620508036      -1.0946745652236813      1.0946745652236811       -0.06444125620508037     -2.2538513178898496      -1.22361800887125
1.302184495285071         -0.25803405626617787     0.1935529197872284       0.2903217724163338       1.2258777364946658       2.2580139615593757       0.0645602177712937       -1.0966964428360055      1.0966964428360053       -0.0645602177712937      -2.2580139615593757      -1.2258777364946658
1.3260011040748951        -0.2627535872852256      0.1970925440854701       0.2956312995399006       1.248295655845563        2.299310004986464        0.06574039133274051      -1.1167547404736429      1.1167547404736429       -0.06574039133274051     -2.299310004986464       -1.248295655845563
1.355594281136882         -0.2686178122134887      0.20149068049512917      0.30222861482256874      1.276150876348686        2.35062212520264         0.0672067933779095       -1.1416780422318644      1.1416780422318646       -0.0672067933779095      -2.35062212520264        -1.276150876348686
1.4128273098992632        -0.27995919121538637     0.20999665332684905      0.31498779122179804      1.330022742436967        2.449859507298512        0.07004282247587157      -1.1898795873374173      1.1898795873374173       -0.07004282247587157     -2.449859507298512       -1.330022742436967
1.4513295726751043        -0.2875888396278907      0.21571885765121515      0.3235712326237957       1.3662638241930474       2.5166191827046096       0.07195067828575535      -1.2223060367973182      1.2223060367973186       -0.07195067828575535     -2.5166191827046096      -1.3662638241930474
1.5015770336227334        -0.2975459353958163      0.2231866268757947       0.33477307292690095      1.413560301543356        2.6037440431266203       0.07444054028858631      -1.2646242818718512      1.2646242818718514       -0.07444054028858632     -2.6037440431266203      -1.413560301543356
1.530983883404399         -0.3033732369908744      0.22755707584614826      0.34132885636642374      1.4412401790223919       2.6547331269858883       0.07589772394550086      -1.2893906719089978      1.289390671908998        -0.07589772394550086     -2.6547331269858883      -1.4412401790223919
1.5597533835748432        -0.30907422918856764     0.23183280033288112      0.34774254235145685      1.4683201120273361       2.7046170287816054       0.07732331003004803      -1.3136202267843178      1.313620226784318        -0.07732331003004805     -2.7046170287816054      -1.4683201120273361
1.571148166101022         -0.31133223076897415     0.23352629247216433      0.35028282019610224      1.4790456966629546       2.72437461973885         0.07788794182996703      -1.323216864905863       1.323216864905863        -0.07788794182996707     -2.72437461973885        -1.4790456966629546
1.6080200333043155        -0.31863879710547927     0.23900618795292622      0.3585027916727009       1.5137521363386246       2.7883073247605403       0.07971500862106541      -1.354270197042982       1.354270197042982        -0.07971500862106545     -2.7883073247605403      -1.5137521363386246
1.6293157403154996        -0.3228587563672073      0.2421711356102289       0.36325028264024906      1.5337970246572694       2.8252320501260972       0.0807702109958942       -1.3722052364647228      1.372205236464723        -0.08077021099589424     -2.8252320501260972      -1.5337970246572694
1.6394162513680806        -0.32486027456719657     0.24367226392574504      0.36550200806850386      1.5433042749168584       2.842745373185643        0.0812706913623864       -1.380711789631172       1.3807117896311722       -0.08127069136238646     -2.842745373185643       -1.5433042749168584
1.6842732518386094        -0.3337491789414376      0.2503388907497566       0.3755021224270053       1.5855268040744166       2.920523519840166        0.08349345957587502      -1.418490175341625       1.418490175341625        -0.08349345957587506     -2.920523519840166       -1.5855268040744166
1.7126345773361074        -0.33936927388025234     0.2545539399471939       0.3818247997162813       1.6122224709462027       2.9696995664672103       0.0848988312630379       -1.442375926784047       1.442375926784047        -0.08489883126303793     -2.9696995664672103      -1.6122224709462027
1.786449356759742         -0.35399630213790606     0.2655241157849356       0.39828022558342174      1.6817006454126826       3.097685853964305        0.08855595070306685      -1.5045411592546907      1.504541159254691        -0.08855595070306682     -3.097685853964305       -1.681700645412682
1.7914661156370097        -0.3549904157074731      0.26626969448135535      0.3993986046457558       1.6864226706121437       3.1063843334420342       0.08880450372400998      -1.5087661665539018      1.508766166553902        -0.08880450372400996     -3.1063843334420342      -1.686422670612143
1.8229971793457318        -0.36123864975086195     0.27095582639777893      0.4064279300090716       1.7161018997278996       3.161056498731346        0.09036694134122467      -1.5353215403446727      1.5353215403446727       -0.09036694134122464     -3.161056498731346       -1.7161018997278992
1.8265699774538602        -0.3619466352118633      0.27148681439428696      0.40722442395645897      1.7194648685849707       3.1672514094324216       0.09054398221924743      -1.5383305230667006      1.5383305230667006       -0.09054398221924741     -3.1672514094324216      -1.71946486858497
1.8524841699142964        -0.367081816014866       0.2753381790598489       0.4130015746189094       1.743857203625453        3.2121844676849145       0.09182812926635804      -1.560155393325822       1.560155393325822        -0.09182812926635801     -3.2121844676849145      -1.7438572036254527
1.962269148774587         -0.38883667389628473     0.2916542995605632       0.43747610086517796      1.8471939543498326       3.4025406499349704       0.0972681569864521       -1.6526148525715911      1.6526148525715911       -0.09726815698645207     -3.4025406499349704      -1.8471939543498326
1.9675430908523368        -0.3898817518438089      0.29243810692061983      0.43865182850244844      1.8521581310840363       3.41168513845927         0.09752948956031579      -1.6570564969355515      1.6570564969355515       -0.09752948956031576     -3.41168513845927        -1.8521581310840363
1.9703087551436318        -0.3904297911763037      0.2928491337673638       0.439268379244378        1.8547613359269963       3.4164805006322103       0.09766653332281225      -1.6593856980280273      1.6593856980280273       -0.09766653332281225     -3.4164805006322103      -1.8547613359269963
1.9713282720258114        -0.39063182014752396     0.2930006508229353       0.43949566529992623      1.8557209733734634       3.418248253963558        0.09771706843585035      -1.6602443490259464      1.6602443490259464       -0.09771706843585033     -3.418248253963558       -1.8557209733734634
1.978967410224992         -0.392145625653846       0.2941359618486076       0.4411986854043474       1.8629113758555205       3.4314938784709033       0.09809560476387402      -1.666678107379258       1.666678107379258        -0.098095604763874       -3.4314938784709033      -1.86291137585552
1.979159814275978         -0.3921837531752743      0.29416455635437805      0.44124157857141283      1.863092476998237        3.4318274896993333       0.09810513887196778      -1.6668401515730653      1.6668401515730653       -0.09810513887196776     -3.4318274896993333      -1.8630924769982367
1.9796530936872518        -0.39228150330697426     0.29423786604250474      0.44135154671443927      1.8635567783713232       3.4326827915992193       0.09812958211629348      -1.6672555953441905      1.6672555953441905       -0.09812958211629345     -3.4326827915992193      -1.8635567783713227
1.9799772539195395        -0.3923457362282565      0.29428604210297626      0.44142381228606986      1.8638619029966952       3.4332448479097204       0.09814565037883673      -1.6675285952918628      1.6675285952918628       -0.0981456503788367      -3.4332448479097204      -1.8638619029966947
1.9962509516731346        -0.39557033909378114     0.2967045597195028       0.4450516888367885       1.8791797563181003       3.4614611126932235       0.09895239800108234      -1.681233754376207       1.681233754376207        -0.09895239800108231     -3.4614611126932235      -1.8791797563181
2.1493437509702504        -0.42590539181378334     0.31945646513581494      0.4791804888835513       2.0232805673140835       3.7269021345692157       0.10654177649919279      -1.810163343754326       1.810163343754326        -0.10654177649919273     -3.7269021345692157      -2.0232805673140835
2.1706791530626757        -0.43013287117397203     0.3226270411053572       0.48393692647884956      2.043363086883526        3.7638945715794128       0.10760084025138142      -1.8281323249472696      1.8281323249472696       -0.10760084025138138     -3.7638945715794128      -2.043363086883526
2.1855157059492427        -0.4330725391717941      0.32483091516601725      0.4872438028608129       2.0573228785977147       3.78961303528489         0.1083373876016104       -1.840627544288787       1.840627544288787        -0.10833738760161035     -3.78961303528489        -2.0573228785977147
2.2327232778855137        -0.442427264509236       0.3318443765076666       0.497765843740142        2.101741975465095        3.871451033502038        0.11067571641909482      -1.880384774456039       1.880384774456039        -0.11067571641909478     -3.871451033502038       -2.101741975465095
2.2742918333931796        -0.4506643758826697      0.33801992598366115      0.5070308736132203       2.1408545206385243       3.9435120241692028       0.11273496473655686      -1.9153924682672359      1.9153924682672359       -0.11273496473655684     -3.9435120241692028      -2.1408545206385243
2.315614389051421         -0.45885317851104285     0.34416402521774636      0.5162458185288527       2.1797689927465633       4.0151817067907345       0.11478484144008456      -1.9501975554842557      1.9501975554842557       -0.11478484144008452     -4.0151817067907345      -2.1797689927465633
2.3317540625737365        -0.4620515431536776      0.3465637740751738       0.5198449715844978       2.1949681222561575       4.043174294870867        0.11558547780511384      -1.9637916504198238      1.9637916504198238       -0.1155854778051138      -4.043174294870867       -2.1949681222561575
2.3485217818258244        -0.46537478567106966     0.349057294016293        0.5235842084497455       2.210759144505722        4.0722582871899995       0.11641538040796306      -1.9779145230922413      1.9779145230922413       -0.11641538040796304     -4.0722582871899995      -2.210759144505722
2.39822135854135          -0.4752245152699852      0.35644491508063014      0.5346648299099631       2.2575450343417716       4.1584430954217115       0.11887554385799068      -2.019773604937931       2.019773604937931        -0.11887554385799065     -4.1584430954217115      -2.2575450343417716
2.4575542401285344        -0.4869840782899536      0.36527189442899793      0.5479001083283042       2.3134479600203024       4.261384273180117        0.12181659344631435      -2.0697529066061287      2.0697529066061287       -0.12181659344631435     -4.261384273180117       -2.3134479600203024
2.467685363352568         -0.4889906706081214      0.36678329569321216      0.5501624202503496       2.323018226864791        4.278980909297277        0.12231845270551807      -2.078281135138003       2.078281135138003        -0.12231845270551807     -4.278980909297277       -2.323018226864791
2.4994784936406935        -0.4952996113355693      0.37150618211322334      0.557256982904752        2.35294725528754         4.334145700629817        0.12391016260819865      -2.1051086079504753      2.1051086079504753       -0.12391016260819865     -4.334145700629817       -2.35294725528754
2.5299229309959506        -0.4838020079692303      0.36285665883479423      0.5442099326182356       2.2978056910388647       4.233013722915786        0.12066573803009867      -2.0558737699070195      2.0558737699070195       -0.12066573803009864     -4.233013722915786       -2.2978056910388647
2.5329731535834643        -0.4826500651994871      0.3619900646860099       0.5429027510461152       2.292281067843516        4.222881328641465        0.12034067972745612      -2.050940940525404       2.050940940525404        -0.1203406797274561      -4.222881328641465       -2.292281067843516
2.5416727323375516        -0.47920226962573204     0.35947015752455547      0.5391875440785961       2.2767561096365867       4.193565188139515        0.11993516448925363      -2.0367442429921816      2.0367442429921816       -0.11993516448925358     -4.193565188139515       -2.2767561096365867
2.543016086904437         -0.4786982947749948      0.3590540237334996       0.538615419353093        2.2742271590628813       4.189020338162861        0.11990301666188335      -2.0346961957618626      2.0346961957618626       -0.11990301666188331     -4.189020338162861       -2.2742271590628813
2.5489507227038035        -0.47651606716833295     0.35741782903377683      0.5362527929673541       2.2642325246340813       4.170296793307413        0.11972555043141982      -2.025789819104751       2.025789819104751        -0.1197255504314198      -4.170296793307413       -2.2642325246340813
2.5518762557765813        -0.47542741660344817     0.3566010355862976       0.5350735200622051       2.259242353800817        4.1609520202146095       0.11963614028303096      -2.0213458066968237      2.0213458066968237       -0.11963614028303095     -4.1609520202146095      -2.259242353800817
2.5519704682608055        -0.47539270152753016     0.35657551284459243      0.5350342557265706       2.2590781583849995       4.16064896449512         0.11962508131744473      -2.0211958874275653      2.0211958874275653       -0.11962508131744472     -4.16064896449512        -2.2590781583849995
2.5558976386464742        -0.4739456319676434      0.35551161822158633      0.5333975539944479       2.2522338067072636       4.148016334577838        0.11916409737774543      -2.0149466252483186      2.0149466252483186       -0.11916409737774541     -4.148016334577838       -2.2522338067072636
2.583809191349916         -0.4634812570905935      0.34782075562910114      0.5215593504151638       2.2027371543667718       4.056662182729146        0.11581262059216406      -1.969737648954538       1.969737648954538        -0.11581262059216402     -4.056662182729146       -2.2027371543667718
2.585570511462822         -0.4628713408743282      0.3472898886861812       0.5208164195903092       2.199392662671124        4.050878026168437        0.11565333055403657      -1.967138694051349       1.967138694051349        -0.11565333055403654     -4.050878026168437       -2.199392662671124
2.587685030998929         -0.46213911750094355     0.3466525664222424       0.5199245080453149       2.1953774964460995       4.043933966449874        0.11546209791264449      -1.9640185679164184      1.9640185679164184       -0.11546209791264446     -4.043933966449874       -2.1953774964460995
2.6168483900581574        -0.4517720626194688      0.33918629607640566      0.5084794691046192       2.1479326394087557       3.9550208898866317       0.11281486295032145      -1.9199031134281968      1.9199031134281968       -0.11281486295032145     -3.9550208898866317      -2.1479326394087557
2.618913407132177         -0.45104901763667626     0.3386596585099551       0.5076825112171822       2.144610985125242        3.948807055671947        0.11265303406551029      -1.9168491046122154      1.9168491046122154       -0.11265303406551029     -3.948807055671947       -2.144610985125242
2.622583322425739         -0.449764033665518       0.33772372665563927      0.5062661704148582       2.138707794295315        3.937763928957387        0.11236543436147865      -1.9114215690235508      1.9114215690235508       -0.11236543436147865     -3.937763928957387       -2.138707794295315
2.628399371828145         -0.4477410181665398      0.33601591418408594      0.5038976625898987       2.1281563565787733       3.9191204292449324       0.11206087147425688      -1.9030249441404161      1.9030249441404161       -0.11206087147425688     -3.9191204292449324      -2.1281563565787733
2.6326840678371957        -0.44636239363099034     0.33491434713265156      0.5022546211521917       2.12103673874474         3.9064863132687018       0.1115506559488306       -1.8970002304727926      1.8970002304727926       -0.1115506559488306      -3.9064863132687018      -2.12103673874474
2.6327168811757558        -0.44635194814561086     0.3349060016269888       0.5022426464552319       2.1209846944106716       3.906392486993116        0.11154868464873866      -1.8969564772311827      1.8969564772311827       -0.11154868464873866     -3.906392486993116       -2.1209846944106716
2.6485061579936793        -0.44132574028635163     0.3308902718999558       0.4964806053642731       2.0959417565842564       3.861244717729664        0.11060012518452131      -1.8759030863299282      1.8759030863299282       -0.11060012518452131     -3.861244717729664       -2.0959417565842564
2.654367237595954         -0.4393732549774218      0.3293708233149816       0.4944288942886167       2.0870815371445675       3.8445745570542558       0.11085659725467809      -1.8683496171643657      1.8683496171643657       -0.11085659725467809     -3.8445745570542558      -2.0870815371445675
2.6688256864434896        -0.43483503942146234     0.3259546333533965       0.4892900754885543       2.0653541231714816       3.8046942808573316       0.10962632305110268      -1.8489664807369528      1.8489664807369528       -0.10962632305110268     -3.8046942808573316      -2.0653541231714816
2.6936677418997883        -0.4267110104315         0.31976360010532123      0.48037191544939895      2.02735644125056         3.73420048297656         0.10877484061863212      -1.8156188823446326      1.8156188823446326       -0.10877484061863212     -3.73420048297656        -2.02735644125056
2.6941778244724937        -0.4265441995323285      0.31963647945814133      0.48018879863667896      2.0265762338564826       3.7327530319857973       0.1087573571076347       -1.814934155236949       1.814934155236949        -0.1087573571076347      -3.7327530319857973      -2.0265762338564826
2.697816105205864         -0.4253552831104122      0.31878301958931715      0.4788796481560463       2.0211570851713123       3.722578217612962        0.10845896763540927      -1.8098801000770584      1.8098801000770584       -0.10845896763540927     -3.722578217612962       -2.0211570851713123
2.6984062875168426        -0.42516242348992955     0.318644575924679        0.47866728481393467      2.0202780200499166       3.720927714009635        0.10841056450184278      -1.8090602584615612      1.8090602584615612       -0.10841056450184278     -3.720927714009635       -2.0202780200499166
2.71506227522557          -0.4198961066036891      0.31496933991085213      0.4725294215259986       1.9952334926291726       3.6748179190439294       0.10541745316406001      -1.7850018795788167      1.7850018795788167       -0.10541745316406001     -3.6748179190439294      -1.9952334926291726