% Model:              Sphere_potential.mph
% Version:            COMSOL 6.2.0.278
% Date:               Oct 11 2024, 12:27
% Dimension:          1
% Nodes:              728
% Expressions:        11
% Description:        Line graph
% Arc length (m)          Magnetic scalar potential Magnetic scalar potential Magnetic scalar potential Magnetic scalar potential Magnetic scalar potential Magnetic scalar potential Magnetic scalar potential Magnetic scalar potential Magnetic scalar potential Magnetic scalar potential Magnetic scalar potential
0                         8.645312016605095E-6     2.2163235898260084E-5    2.097618354158625E-5     1.676850658941649E-4     1.3310381782823816E-4    3.4705650505326147E-5    -1.244024389196463E-7    1.244024389196463E-7     -3.4705650505329616E-5   -1.3310381782823816E-4   -1.676850658941559E-4
0.05833601025924459       -0.01155134179905356     -0.008647799333791943    0.01302603501196019      0.0030580584483576034    0.049263425644572284     0.05494485445111017      -0.1011502216473243      0.10115022164732429      -0.05494485445111018     -0.049263425644572284    -0.0030580584483575965
0.07729329453392929       -0.015307956820726217    -0.011465251672069745    0.01725225151857071      0.0039973374166209635    0.06522916469952628      0.0727888474490405       -0.13402067473194515     0.13402067473194512      -0.07278884744904052     -0.06522916469952628     -0.003997337416620957
0.10451482403555193       -0.020702231926642032    -0.015510945181464588    0.023320846347238827     0.005346085991277241     0.0881550136978459       0.09841175708006611      -0.18122068478663383     0.18122068478663383      -0.09841175708006612     -0.0881550136978459      -0.005346085991277241
0.13722976728816172       -0.02718509196991541     -0.020373073593217522    0.03061410784691325      0.006967026668169545     0.11570739454783158      0.12920546822747592      -0.2379458361071372      0.2379458361071372       -0.12920546822747592     -0.11570739454783158     -0.006967026668169531
0.1510958987757704        -0.02993283293592249     -0.02243387227308763     0.03370533506216852      0.0076540575575662455    0.12738538930125654      0.14225729119609318      -0.2619886229397828      0.26198862293978276      -0.1422572911960932      -0.12738538930125654     -0.007654057557566225
0.18847908215729298       -0.03734076336012514     -0.027989802537213608    0.04203930391685895      0.009506281335544806     0.1588693347760456       0.17744509655882754      -0.3268081499993277      0.3268081499993277       -0.17744509655882756     -0.1588693347760456      -0.009506281335544788
0.23509606949117856       -0.046578485646463955    -0.034918074062799155    0.05243179769165203      0.011815997285282799     0.1981299398711388       0.2213244416620787       -0.4076383842479342      0.4076383842479342       -0.2213244416620788      -0.1981299398711388      -0.011815997285282799
0.26815102542412694       -0.053128724216454044    -0.03983073763294174     0.059800858590361786     0.013453773029714032     0.22596866989553027      0.25243819882736535      -0.4649530956931812      0.46495309569318116      -0.2524381988273655      -0.22596866989553027     -0.013453773029714029
0.2994543169016951        -0.059331849418551255    -0.04448306681029314     0.06677941514633781      0.015004761317369466     0.25233215899157463      0.28190316217912914      -0.5192305598533339      0.5192305598533339       -0.28190316217912925     -0.25233215899157463     -0.015004761317369466
0.3736740227389578        -0.07403938126590237     -0.055513680021424774    0.08332548374685572      0.018682132391343913     0.31483965745495335      0.35176421251989337      -0.6479217375835025      0.6479217375835025       -0.3517642125198934      -0.31483965745495335     -0.018682132391343913
0.4428262114824635        -0.08774272410869338     -0.06579115603303864     0.09874183130191842      0.022108408891171202     0.3730793053259444       0.4168553450894035       -0.7678262415241771      0.767826241524177        -0.4168553450894035      -0.3730793053259444      -0.022108408891171202
0.47762763584441825       -0.09463904571665926     -0.07096338032105373     0.10650023896417625      0.023832723460225493     0.40238890632686214      0.44961300538654825      -0.8281691882531854      0.8281691882531854       -0.44961300538654825     -0.40238890632686214     -0.023832723460225493
0.5257391126415034        -0.10417291466001855     -0.07811375976886327     0.11722590478088955      0.026216510496931713     0.44290816913700537      0.4948990691101116       -0.9115907277501858      0.9115907277501858       -0.4948990691101116      -0.44290816913700537     -0.026216510496931713
0.5604545655351323        -0.11105220078286226     -0.08327320822273115     0.1249651454362207       0.027936555510965057     0.4721453586424138       0.5275758048473522       -0.9717846079788015      0.9717846079788015       -0.5275758048473523      -0.4721453586424138      -0.02793655551096505
0.5870558894550938        -0.11632357428481789     -0.0872267259829697      0.13089547416325237      0.02925457013446477      0.49454886727373626      0.5526149260322831       -1.017909223171555       1.017909223171555        -0.5526149260322831      -0.49454886727373626     -0.02925457013446476
0.6173449541174805        -0.12232571615009324     -0.09172831753722877     0.13764792399270298      0.030755311058939503     0.5200581756593123       0.5811252162823124       -1.0704280808826854      1.0704280808826854       -0.5811252162823124      -0.5200581756593123      -0.03075531105893949
0.6260938900275833        -0.12405942285539963     -0.0930285932783473      0.13959835565682133      0.03118879708144461      0.5274264885030431       0.5893603567515286       -1.0855980481731273      1.0855980481731273       -0.5893603567515286      -0.5274264885030431      -0.031188797081444595
0.657050024736292         -0.13019375276797604     -0.09762932570686075     0.14649951843129516      0.032722591068646945     0.5534976021405509       0.6184985453098117       -1.1392735563817158      1.1392735563817158       -0.6184985453098117      -0.5534976021405509      -0.03272259106864696
0.6764234963571787        -0.13403283991049952     -0.10050863260873558     0.15081851666917415      0.03368248902949151      0.5698138486714895       0.6367342846819052       -1.1728656443239034      1.1728656443239034       -0.6367342846819052      -0.5698138486714895      -0.03368248902949152
0.7642303834267505        -0.1514328248125772      -0.11355857890459597     0.17039361705996295      0.03803308190091002      0.643764381151219        0.7193845553284859       -1.3251158545787953      1.3251158545787953       -0.7193845553284859      -0.643764381151219       -0.038033081900910023
0.8486332730428855        -0.1681582669051644      -0.12610261973630515     0.18920985223977765      0.04221501593986693      0.7148480835605246       0.7988307343576977       -1.4714638019783561      1.4714638019783561       -0.7988307343576977      -0.7148480835605246      -0.04221501593986693
0.8990982527137742        -0.178158509620308       -0.13360277926964537     0.20046019179285812      0.04471541012188109      0.7573494486031133       0.8463320857397532       -1.558966124220986       1.558966124220986        -0.8463320857397532      -0.7573494486031133      -0.044715410121881086
0.92526819880542          -0.1833443979527401      -0.13749218344707517     0.20629435060964144      0.04601205619186089      0.7793896480028214       0.8709651568743115       -1.6043427486852728      1.6043427486852728       -0.8709651568743115      -0.7793896480028214      -0.046012056191860884
0.9521181196557407        -0.18866503142966007     -0.14148264616920633     0.21228009860890223      0.0473423930686706       0.8020025187873112       0.8962382700839082       -1.6508983958025496      1.6508983958025496       -0.8962382700839082      -0.8020025187873112      -0.047342393068670593
1.0477599317917505        -0.2076175906455869      -0.15569702318976048     0.23360186497485705      0.05208120903897363      0.8825515716213219       0.986263348177536        -1.8167337107598849      1.8167337107598849       -0.986263348177536       -0.8825515716213219      -0.05208120903897363
1.0729453185915312        -0.2126083735653387      -0.15944009901239303     0.2392165315849446       0.05332908217192253      0.9037625764332781       1.0099696762462802       -1.8604031705076363      1.8604031705076363       -1.0099696762462802      -0.9037625764332781      -0.05332908217192254
1.1542988430631689        -0.22872953873236296     -0.171530936169533       0.2573529581205029       0.057359946508687296     0.9722781014381401       1.0865455635258847       -2.0014637184553377      2.0014637184553377       -1.0865455635258847      -0.9722781014381401      -0.057359946508687296
1.1696055253659332        -0.231762740735221       -0.17380583186467627     0.260765330928867        0.05811834665099781      0.9851693095918825       1.1009533378390552       -2.0280043007799398      2.0280043007799398       -1.1009533378390552      -0.9851693095918825      -0.05811834665099779
1.1807808715046302        -0.23397726911047864     -0.17546672390645238     0.26325669035826194      0.058672051492733794     0.994581127934649        1.1114723949314478       -2.047381471373363       2.047381471373363        -1.1114723949314478      -0.994581127934649       -0.05867205149273378
1.2282485827768406        -0.24338354916540028     -0.1825214136903282      0.27383882350569055      0.06102395462097743      1.0345581512825788       1.1561524367629468       -2.1296866334245483      2.129686633424549        -1.1561524367629468      -1.0345581512825788      -0.06102395462097741
1.2314008536921188        -0.24400820837570117     -0.1829899067527911      0.2745415696387608       0.06118014154526789      1.037212975048073        1.1591195820620148       -2.1351524155648196      2.13515241556482         -1.1591195820620148      -1.037212975048073       -0.06118014154526787
1.2350818890552533        -0.24473764895216726     -0.18353698601921384     0.2753621959751645       0.06136252793868207      1.0403131237473515       1.1625844440539654       -2.1415350398626347      2.141535039862635        -1.1625844440539654      -1.0403131237473515      -0.06136252793868205
1.2424552118010266        -0.24619875673986738     -0.18463281482554456     0.2770059545394156       0.06172786020129426      1.0465228871607641       1.169524749154562        -2.154319776114032       2.154319776114032        -1.169524749154562       -1.0465228871607641      -0.06172786020129424
1.294772293583799         -0.25656598273619224     -0.19240820799906694     0.28866916334412246      0.0643200639069047       1.090583994851674        1.2187693119013068       -2.245033242846076       2.245033242846076        -1.2187693119013068      -1.090583994851674       -0.0643200639069047
1.349517859812619         -0.26741444060216296     -0.20054452385291408     0.3008737616951891       0.0670325940176881       1.1366903564263406       1.270299737135173        -2.339957499543825       2.339957499543825        -1.270299737135173       -1.1366903564263406      -0.0670325940176881
1.4116124597347421        -0.2797192011775523      -0.20977306989456382     0.3147167150703948       0.07010924824278285      1.1889860529529925       1.3287476676101662       -2.4476244723203755      2.4476244723203755       -1.3287476676101662      -1.1889860529529925      -0.07010924824278283
1.4233606575395918        -0.2820472419631002      -0.21151909586919662     0.3173357794440953       0.07069134624259066      1.198880314094992        1.3398059214577709       -2.4679948893101717      2.4679948893101717       -1.3398059214577709      -1.198880314094992       -0.07069134624259066
1.4455133043521537        -0.2864370494639755      -0.21481143340324654     0.3222743477722007       0.07178899195111191      1.2175371898070144       1.360657592370592        -2.506405790226494       2.506405790226494        -1.360657592370592       -1.2175371898070144      -0.07178899195111191
1.499325759706101         -0.29710054896158267     -0.22280904202217586     0.3342708693424908       0.07445525338027013      1.2628574492266011       1.411309505513326        -2.5997117013596567      2.5997117013596567       -1.411309505513326       -1.2628574492266011      -0.07445525338027012
1.522818434520134         -0.30175586188418124     -0.22630052314558088     0.33950813095726756      0.07561923062396508      1.28264267816069         1.4334223694974515       -2.640445817034176       2.640445817034176        -1.4334223694974515      -1.28264267816069        -0.07561923062396508
1.5386985768352157        -0.3049026911086122      -0.22866063787926544     0.3430483395172048       0.07640606221379843      1.296016826648247        1.448369889489392        -2.6679806539238404      2.6679806539238404       -1.448369889489392       -1.296016826648247       -0.07640606221379842
1.5849426960387207        -0.31406644872473855     -0.23553343446702135     0.3533576430644052       0.07869737140707972      1.3349631663060335       1.491897978209209        -2.7481637731081623      2.7481637731081623       -1.491897978209209       -1.3349631663060335      -0.0786973714070797
1.6039652808223404        -0.3178359609575623      -0.23836056009261647     0.3575983834034109       0.07963993142066951      1.3509837752509184       1.5098032919763695       -2.7811471358066178      2.7811471358066178       -1.5098032919763695      -1.3509837752509184      -0.07963993142066951
1.632830056033769         -0.3235557881023854      -0.24265041321794034     0.36403324578486096      0.08107016728085192      1.3752933196903934       1.5369726465884954       -2.8311957989980363      2.8311957989980363       -1.5369726465884954      -1.3752933196903934      -0.08107016728085192
1.7263190671016393        -0.3420815164107407      -0.2565446536329549      0.3848748742400661       0.08570250323991806      1.4540285688828807       1.6249704250376493       -2.9932964906806117      2.9932964906806117       -1.6249704250376493      -1.4540285688828807      -0.08570250323991806
1.7450804455543993        -0.34579922079553715     -0.25933294140150565     0.3890573429423062       0.0866321059736333       1.4698289891557816       1.642629754382669        -3.0258266375648173      3.0258266375648173       -1.642629754382669       -1.4698289891557816      -0.0866321059736333
1.8154850245108172        -0.35975034843136583     -0.26979632163417255     0.4047525561198671       0.09012056271421906      1.529121956439682        1.708898492519256        -3.147899886244719       3.147899886244719        -1.708898492519256       -1.529121956439682       -0.09012056271421906
1.8382124243082214        -0.3642539162299915      -0.2731740090356072      0.40981914193201485      0.09124670816125471      1.5482623730812204       1.7302907623748998       -3.1873064272948657      3.1873064272948657       -1.7302907623748998      -1.5482623730812204      -0.09124670816125471
1.8568139930262977        -0.3679397999080912      -0.2759384711891671      0.413965847216035        0.09216837548045612      1.563927575112821        1.74779920261546         -3.2195584022478254      3.2195584022478254       -1.74779920261546        -1.563927575112821       -0.09216837548045612
1.9152983855040966        -0.3795286344551591      -0.2846302357299336      0.42700351372219597      0.09506607878866451      1.6131806166093012       1.802847493168268        -3.320962030988906       3.320962030988906        -1.802847493168268       -1.6131806166093012      -0.09506607878866448
1.9322307816769428        -0.38288383281525157     -0.2871466746362832      0.4307781777838182       0.09590502159591988      1.6274403528569266       1.8187850694136212       -3.350320400674629       3.350320400674629        -1.8187850694136212      -1.6274403528569266      -0.09590502159591985
1.947796844393566         -0.3859682007004276      -0.2894599378346016      0.4342481273845388       0.09667629463349449      1.6405490974352053       1.8334359216411062       -3.3773087244428184      3.3773087244428184       -1.8334359216411062      -1.6405490974352053      -0.09667629463349446
2.0105124787293147        -0.39839518222715264     -0.2987800071805323      0.4482286022643752       0.0997840230615977       1.693364751970209        1.8924640661447927       -3.4860447950534064      3.4860447950534064       -1.8924640661447927      -1.693364751970209       -0.09978402306159766
2.020855955724483         -0.40044466843790405     -0.3003171432090014      0.45053436331421337      0.10029668675404063      1.7020753605056576       1.9021995460080499       -3.5039782197596687      3.5039782197596687       -1.9021995460080499      -1.7020753605056576      -0.10029668675404059
2.064068889576188         -0.40900700314378124     -0.30673898351959794     0.4601673619442708       0.10243849093072643      1.7384665035058524       1.9428723920483142       -3.5789004046234423      3.5789004046234423       -1.9428723920483142      -1.7384665035058524      -0.1024384909307264
2.0893019873571133        -0.41400698522136775     -0.3104889871606777      0.46579236850601746      0.10368854209930066      1.7597164829847725       1.9666224650633672       -3.622650405948841       3.622650405948841        -1.9666224650633672      -1.7597164829847725      -0.10368854209930062
2.1002179001896524        -0.4161698165676612      -0.31211113717771777     0.4682255185344937       0.10422902946949852      1.768908295740144        1.9768958525358051       -3.6415751188064527      3.6415751188064527       -1.9768958525358051      -1.768908295740144       -0.1042290294694985
2.1144800612808345        -0.41899565894540036     -0.3142305535941007      0.4714045451717987       0.1049352020140916       1.7809178377956936       1.9903185235786955       -3.6663011593603         3.6663011593603          -1.9903185235786958      -1.7809178377956936      -0.10493520201409158
2.1708042360449733        -0.4301556576076394      -0.32260057785657903     0.48395945144475516      0.10772475699400426      1.8283473874245622       2.0433282241334787       -3.763950854564038       3.763950854564038        -2.0433282241334787      -1.8283473874245622      -0.10772475699400427
2.224642052374648         -0.44081513207789447     -0.3305960051880409      0.4959532428994821       0.11039469187801623      1.8736552201895944       2.093970723006261        -3.8572312513178417      3.8572312513178417       -2.0939707230062616      -1.8736552201895944      -0.11039469187801622
2.253479574513146         -0.4465247401559493      -0.33487865126094074     0.5023775604179024       0.11182480757688813      1.897923768200685        2.1210967151425324       -3.9071956757663315      3.9071956757663315       -2.1210967151425324      -1.897923768200685       -0.11182480757688812
2.271512759365936         -0.45009544112183875     -0.3375568776275274      0.5063956004487529       0.11272088666875141      1.9131026511561062       2.138062152433915        -3.9384439169212717      3.9384439169212717       -2.138062152433915       -1.9131026511561062      -0.11272088666875138
2.299518945522003         -0.4556415375793746      -0.34172159088312465     0.5126367985397088       0.11409934635071216      1.9366654966682102       2.164428891649459        -3.9869950419669595      3.9869950419669595       -2.164428891649459       -1.9366654966682102      -0.11409934635071214
2.341068001434232         -0.46388134263094183     -0.34790030112962933     0.5219042672520869       0.11615348035757635      1.971678850881343        2.203555287135352        -4.059080657659121       4.059080657659121        -2.2035552871353525      -1.971678850881343       -0.11615348035757633
2.350215215520314         -0.46569391581280933     -0.34925964691705935     0.5239433069635748       0.11660645547750269      1.9793821187287395       2.2121643369798587       -4.074940000231097       4.074940000231097        -2.2121643369798587      -1.9793821187287395      -0.11660645547750266
2.4077226946987036        -0.4770837235744098      -0.3577944880048227      0.5367541108133138       0.11946553208996735      2.0278004263876057       2.266232460118903        -4.174567354416545       4.174567354416545        -2.266232460118903       -2.0278004263876057      -0.11946553208996734
2.407790179835094         -0.4770970895355201      -0.35780450365710137     0.5367691443160411       0.11946888722181974      2.0278572453638994       2.2662959091644277       -4.17468426730651        4.17468426730651         -2.2662959091644277      -2.0278572453638994      -0.11946888722181973
2.4082296737044078        -0.4771842569592693      -0.3578697292317119      0.5368671340137479       0.11949083444131695      2.0282278622783934       2.266709209831588        -4.175446237668667       4.175446237668667        -2.266709209831588       -2.0282278622783934      -0.11949083444131693
2.446968821967367         -0.4848689534499606      -0.3636264651986141      0.5455060709855363       0.12140698144638176      2.060882795246224        2.303165772638066        -4.24264158643791        4.24264158643791         -2.303165772638066       -2.060882795246224       -0.12140698144638173
2.4664640596185334        -0.48873424614226396     -0.3665195291683956      0.5498505889125238       0.1223752758603811       2.0773122604294363       2.321492450870754        -4.276429435439811       4.276429435439811        -2.321492450870754       -2.0773122604294363      -0.12237527586038108
2.4988690071335853        -0.4951591284168797      -0.3713283746811275      0.557072038474787        0.12398477302200667      2.1046212866895244       2.351955021108771        -4.332591534776291       4.332591534776291        -2.351955021108771       -2.1046212866895244      -0.12398477302200664
2.5174847168069485        -0.48815454170295575     -0.3657298114445634      0.549368728698634        0.12397639705493468      2.076594563866756        2.3183552657223143       -4.270973432534138       4.270973432534138        -2.3183552657223143      -2.076594563866756       -0.12397639705493466
2.5189456396169225        -0.48760483606807126     -0.3652904476556508      0.5487641887073171       0.12397573972617462      2.0743950839984584       2.3157184256600787       -4.2661377699323655      4.2661377699323655       -2.3157184256600787      -2.0743950839984584      -0.12397573972617462
2.531456286521056         -0.4830892651422187      -0.36158846456635246     0.5432840641536456       0.12219233263108834      2.054549393199962        2.2917231200292028       -4.224080180598079       4.224080180598079        -2.2917231200292028      -2.054549393199962       -0.12219233263108831
2.5565793216775257        -0.4739051684204394      -0.35465102667007287     0.5324628800684277       0.1180881034226138       2.0137087771043705       2.2459942634430505       -4.141614937124809       4.141614937124809        -2.2459942634430505      -2.0137087771043705      -0.1180881034226138
2.562635577287554         -0.4716117240382572      -0.35313729045410014     0.5299239850687849       0.11706062083632568      2.0035075169893535       2.2358843635609262       -4.122331259713956       4.122331259713956        -2.2358843635609262      -2.0035075169893535      -0.11706062083632565
2.5895390847575555        -0.46153558471472234     -0.3456167695014944      0.5192478927672044       0.11707009313488989      1.9632124319937787       2.190770710143856        -4.036913049002746       4.036913049002746        -2.190770710143856       -1.9632124319937787      -0.11707009313488988
2.594449898587544         -0.4599435261550065      -0.3442231471011197      0.5173051501973421       0.11666410717599682      1.9564382117960224       2.1820029897827147       -4.021777094402742       4.021777094402742        -2.1820029897827147      -1.9564382117960224      -0.11666410717599679
2.6071572247232453        -0.45577749652219346     -0.34087562391466664     0.5123870668559625       0.11536640263546306      1.9384763887242369       2.160620146123463        -3.983730132212237       3.983730132212237        -2.160620146123463       -1.9384763887242369      -0.11536640263546305
2.6473733647907665        -0.4420596443325333      -0.331345429639593       0.4972898578880013       0.11100385396815945      1.8792424312982923       2.0990764318057176       -3.8673150091358517      3.8673150091358517       -2.0990764318057176      -1.8792424312982923      -0.11100385396815943
2.65172164179617          -0.44057643333466845     -0.3303149994552502      0.49565750713303236      0.1105321634970419       1.872837896835715        2.092422160228543        -3.854727893567218       3.854727893567218        -2.092422160228543       -1.872837896835715       -0.11053216349704187
2.6561997334831577        -0.4390265216819731      -0.3291517824780286      0.4938954939020721       0.11007358481025685      1.866179671538149        2.084984279678428        -3.841090366406321       3.841090366406321        -2.084984279678428       -1.866179671538149       -0.11007358481025681
2.658892288577589         -0.43805721592446867     -0.32855788524182317     0.4928810474082757       0.10973610205869629      1.8619649657565709       2.0810834135096345       -3.8333122772075106      3.8333122772075106       -2.0810834135096345      -1.8619649657565709      -0.10973610205869624
2.6589798742856066        -0.43802524252236363     -0.32853280595075274     0.49284718369638497      0.1097398318885548       1.861840801978009        2.0809366675930705       -3.8330376376825264      3.8330376376825264       -2.0809366675930705      -1.861840801978009       -0.10973983188855475
2.6592138015727684        -0.4379537638101874      -0.3284758335437455      0.49276576938147165      0.10972804927427562      1.8615431045150252       2.080583050536748        -3.8323981057774987      3.8323981057774987       -2.080583050536748       -1.8615431045150252      -0.10972804927427558
2.710659762882795         -0.42161075768466094     -0.31517065021899454     0.4742705897428174       0.10834889294496405      1.7947919236836074       1.999372794258931        -3.6858158249975745      3.6858158249975745       -1.999372794258931       -1.7947919236836074      -0.10834889294496401
2.7121858639155394        -0.4211259561979899      -0.31477596318242823     0.473721945844859        0.10830798143617147      1.7928118062281309       1.9969637605307404       -3.6814675853227         3.6814675853227          -1.9969637605307404      -1.7928118062281309      -0.10830798143617144
2.723601891808976         -0.4176005769047224      -0.3124799582995364      0.4694671607523836       0.10522761430148041      1.7756299219203697       1.9801073640986981       -3.650509671717588       3.650509671717588        -1.9801073640986981      -1.7756299219203697      -0.10522761430148038
2.7289679514110503        -0.4158571757255743      -0.31134481437041744     0.4676187196521234       0.10472608404609302      1.7681547869483898       1.9727949702685972       -3.6362236731708943      3.6362236731708943       -1.9727949702685972      -1.7681547869483898      -0.10472608404609299
2.7428174898975333        -0.4113575421921223      -0.3084150631749676      0.4628479831981047       0.10343165888327144      1.7488618276517605       1.9539220379330764       -3.599352206701566       3.599352206701566        -1.9539220379330764      -1.7488618276517605      -0.10343165888327144
2.757707349052594         -0.4070183859478539      -0.3051696784151621      0.45823271005695687      0.10338503308663352      1.7314585768780488       1.9344031035776057       -3.5624766473690217      3.5624766473690217       -1.9344031035776057      -1.7314585768780488      -0.10338503308663352
2.7744870564164774        -0.40212849604179357     -0.30151238347464987     0.45303165799149586      0.10333248945844703      1.7118464736256207       1.9124067903063455       -3.5209207744735203      3.5209207744735203       -1.9124067903063455      -1.7118464736256207      -0.10333248945844702
2.7912571770561154        -0.397330782848646       -0.29755162153945464     0.4476871508054484       0.10343217290613782      1.6927553043007215       1.8887419021428649       -3.4780650335374492      3.4780650335374492       -1.8887419021428649      -1.6927553043007215      -0.1034321729061378
2.8159465225867626        -0.39040854670010144     -0.2926898896807164      0.4395706822858513       0.09939596670105291      1.661030153501458        1.855535304785351        -3.4171694915857564      3.4171694915857564       -1.855535304785351       -1.661030153501458       -0.09939596670105288
2.821294100998082         -0.38887808017452485     -0.29160149969945226     0.4377680068914921       0.09851136811856182      1.6540236888166604       1.8481203663152748       -3.4036326870133737      3.4036326870133737       -1.8481203663152748      -1.6540236888166604      -0.09851136811856177
2.8266785742971905        -0.38733705440392496     -0.290505600519979       0.4359528941841514       0.09762066636881842      1.6469688839845176       1.840654269488692        -3.3900024871043914      3.3900024871043914       -1.840654269488692       -1.6469688839845176      -0.09762066636881836
2.8573803412038767        -0.37912967573489187     -0.28384187179395637     0.42706305840334724      0.09846726676173591      1.6149859697013031       1.8015184975254739       -3.3180372004650414      3.3180372004650414       -1.8015184975254739      -1.6149859697013031      -0.0984672667617359
2.8855240656257095        -0.37176692918432874     -0.27883837989817617     0.41863102772879507      0.09447511285199367      1.5815428295893084       1.7675053922410506       -3.2545731089783656      3.2545731089783656       -1.7675053922410506      -1.5815428295893084      -0.09447511285199363