% Model:              Sphere_potential.mph
% Version:            COMSOL 6.2.0.278
% Date:               Oct 11 2024, 12:26
% Dimension:          1
% Nodes:              538
% Expressions:        11
% Description:        Line graph
% Arc length (m)          Magnetic scalar potential Magnetic scalar potential Magnetic scalar potential Magnetic scalar potential Magnetic scalar potential Magnetic scalar potential Magnetic scalar potential Magnetic scalar potential Magnetic scalar potential Magnetic scalar potential Magnetic scalar potential
0                         8.645312016606321E-6     2.216323589826363E-5     2.0976183541586684E-5    1.6768506589418322E-4    1.3310381782825724E-4    3.4705650505314004E-5    -1.2440243890750324E-7   1.2440243890750324E-7    -3.470565050531921E-5    -1.3310381782825724E-4   -1.676850658941728E-4
0.08772167826776422       8.635987653647995E-6     2.2166940302414603E-5    0.02925437062454246      0.11710125529438457      0.11706671134377009      0.11696825365257096      -0.1169337097019563      0.1169337097019563       -0.116968253652571       -0.11706671134377009     -0.11710125529438457
0.11172923812950437       8.633860670481143E-6     2.2168193388294455E-5    0.037254929852311366     0.14910349171075157      0.14906895626806968      0.14897048255042283      -0.14893594710774075     0.14893594710774075      -0.1489704825504229      -0.14906895626806968     -0.14910349171075157
0.11177139535512698       8.633856935502779E-6     2.2168195588707917E-5    0.037268978817821166     0.14915968757192208      0.14912515214418012      0.14902667839839087      -0.1489921429706487      0.1489921429706487       -0.14902667839839093     -0.14912515214418012     -0.14915968757192208
0.12512203304185138       8.633207593714974E-6     2.216975561411278E-5     0.041718100984331395     0.1669561796193558       0.16692164678898083      0.16682316108567202      -0.16678862825529703     0.16678862825529703      -0.16682316108567208     -0.16692164678898083     -0.16695617961935577
0.12513186539879198       8.633207115494104E-6     2.2169756763028813E-5    0.04172137763360014      0.1669692862189211       0.166934753390459        0.1668362676783438       -0.1668017348498817      0.16680173484988167      -0.16683626767834386     -0.166934753390459       -0.16696928621892104
0.13973478167441686       8.63137785503599E-6      2.216994541378095E-5     0.04658782351720053      0.18643506666075405      0.18640054114933374      0.18630204698827219      -0.18626752147685197     0.18626752147685194      -0.18630204698827224     -0.18640054114933374     -0.18643506666075402
0.14806202937884663       8.629899657592905E-6     2.2169316897081327E-5    0.04936289239172579      0.19753533731691011      0.1975008177182795       0.1974023214155284       -0.19736780181689798     0.19736780181689795      -0.1974023214155285      -0.1975008177182795      -0.19753533731691006
0.1756566455699201        8.626716549933722E-6     2.21701107278819E-5      0.05855884433511435      0.2343191411057414       0.23428463423954146      0.2341861204413749       -0.2341516135751751      0.23415161357517505      -0.23418612044137493     -0.23428463423954146     -0.23431914110574134
0.2323747238062164        8.619949272014584E-6     2.217118610268673E-5     0.07746023832892422      0.3099247067725493       0.3098902269754612       0.309791679655934        -0.30975719985884587     0.30975719985884587      -0.309791679655934       -0.3098902269754612      -0.3099247067725493
0.26919892073654594       8.615555618658732E-6     2.21718842894833E-5      0.08973196325913146      0.3590115998006319       0.35897713757815736      0.3588785684948958       -0.35884410627242114     0.35884410627242114      -0.3588785684948958      -0.35897713757815736     -0.3590115998006319
0.3451207882733582        8.605775315769664E-6     2.2170774969115098E-5    0.11503305100825684      0.4602159279085665       0.4601815048073036       0.4600829032587524       -0.46004848015748956     0.46004848015748956      -0.4600829032587524      -0.4601815048073036      -0.4602159279085665
0.4137261031189093        8.596909078708399E-6     2.2169839294158746E-5    0.1378958879672805       0.551667255205162        0.5516328675688473       0.5515342361693975       -0.5514998485330829      0.5514998485330829       -0.5515342361693975      -0.5516328675688473      -0.551667255205162
0.43286930807717694       8.59426476110828E-6      2.2169592980115366E-5    0.14427539328902034      0.5771852704645439       0.5771508934054997       0.5770522529066636       -0.5770178758476194      0.5770178758476194       -0.5770522529066636      -0.5771508934054997      -0.5771852704645439
0.45120235170165385       8.59155807397512E-6      2.2168741625453684E-5    0.1503849107394546       0.6016233322988428       0.6015889660665469       0.6014903198490903       -0.6014559536167947      0.6014559536167947       -0.6014903198490903      -0.6015889660665469      -0.6016233322988428
0.5743999585769927        8.571353074664418E-6     2.215991369861319E-5     0.1914407218465383       0.7658465098333986       0.7658122244210996       0.7657135503512065       -0.7656792649389083      0.7656792649389083       -0.7657135503512065      -0.7658122244210996      -0.7658465098333986
0.6433817075977153        8.561675393307933E-6     2.215678127814695E-5     0.21442900530730333      0.857799614923835        0.8577653682222612       0.8576666742361654       -0.8576324275345925      0.8576324275345925       -0.8576666742361654      -0.8577653682222612      -0.857799614923835
0.6515783994482539        8.56052545186595E-6      2.2156409071213273E-5    0.21716056660251087      0.8687258566881614       0.8686916145863534       0.8685929182337333       -0.8685586761319262      0.8685586761319262       -0.8685929182337333      -0.8686916145863534      -0.8687258566881614
0.6797530035339832        8.555782826594172E-6     2.2153834400743394E-5    0.22654980115712284      0.9062827776973474       0.9062485545660404       0.9061498546909419       -0.9061156315596359      0.9061156315596359       -0.9061498546909419      -0.9062485545660404      -0.9062827776973474
0.7185042138091868        8.548320899770014E-6     2.214887596005584E-5     0.23946370735465655      0.9579383726883068       0.9579041794047067       0.9578054794325451       -0.9577712861489465      0.9577712861489465       -0.9578054794325451      -0.9579041794047067      -0.9579383726883068
0.7341883369953274        8.5453007675311E-6       2.2146869086104096E-5    0.24469046786556609      0.9788454026710585       0.9788112214679874       0.9787125214565404       -0.9786783402534707      0.9786783402534707       -0.9787125214565404      -0.9788112214679874      -0.9788454026710585
0.8280708987019514        8.528833593805254E-6     2.213440302395106E-5     0.27597699235287204      1.1039914302877483       1.1039573149533723       1.1038586238696038       -1.1038245085352285      1.1038245085352287       -1.1038586238696038      -1.1039573149533723      -1.1039914302877483
0.8890609966851738        8.518869894029099E-6     2.212744194997644E-5     0.2963020472755957       1.1852916091680217       1.1852575336884448       1.1851588445163213       -1.185124769036745       1.1851247690367452       -1.1851588445163213      -1.1852575336884448      -1.1852916091680217
0.9166819752148015        8.513502984383993E-6     2.2123428717466236E-5    0.30550678478692916      1.2221105364398386       1.2220764824279          1.221977795867533        -1.2219437418555956      1.221943741855596        -1.221977795867533       -1.2220764824279         -1.2221105364398386
0.9519017773279759        8.506003043697486E-6     2.211672752121946E-5     0.31724384315366927      1.2690587348033289       1.2690247107911532       1.2689260344382012       -1.268892010426026       1.2688920104260262       -1.2689260344382012      -1.2690247107911532      -1.2690587348033289
1.0443042586718945        8.48859040679655E-6      2.2099526033633136E-5    0.3480371421013255       1.392231844164217        1.3921978898025897       1.3920992470080154       -1.3920652926463881      1.3920652926463883       -1.3920992470080154      -1.3921978898025897      -1.392231844164217
1.0966286908184055        8.478569818282967E-6     2.2090127424076282E-5    0.3654743553752839       1.4619806490230447       1.4619467347437718       1.4618481082585002       -1.4618141939792275      1.4618141939792275       -1.4618481082585002      -1.4619467347437718      -1.4619806490230447
1.1196690282837787        8.474157391213358E-6     2.208598887680534E-5     0.37315259022287356      1.4926935671729074       1.4926596705433428       1.492561051239647        -1.4925271546100822      1.4925271546100822       -1.492561051239647       -1.4926596705433428      -1.4926935671729074
1.1572025215229713        8.465163429222772E-6     2.2078837201305705E-5    0.38566069705346095      1.542725955052307        1.54269209439859         1.542593482029099        -1.5425596213753825      1.5425596213753825       -1.542593482029099       -1.54269209439859        -1.542725955052307
1.2142688600867517        8.4512257812185E-6       2.2066328252599854E-5    0.40467816078752966      1.6187957445864392       1.6187619396833144       1.6186633466169238       -1.6186295417137995      1.6186295417137995       -1.6186633466169238      -1.6187619396833144      -1.6187957445864392
1.2245349259380753        8.448284818039038E-6     2.206379330828398E-5     0.40809934804614756      1.6324804801341515       1.6324466869948795       1.6323480973743019       -1.63231430423503        1.63231430423503         -1.6323480973743019      -1.6324466869948795      -1.6324804801341515
1.2270552219613828        8.447562818208267E-6     2.2063170985169933E-5    0.4089392418056225       1.635840051861082        1.6358062616098095       1.6357076728351714       -1.6356738825838988      1.6356738825838988       -1.6357076728351714      -1.6358062616098095      -1.635840051861082
1.3591043353067034        8.41008687747888E-6      2.2032114429443306E-5    0.4529448790709716       1.8118624328009294       1.8118287924534204       1.8117302401143527       -1.8116965997668433      1.8116965997668433       -1.8117302401143527      -1.8118287924534204      -1.8118624328009294
1.3858659204559105        8.401805900222644E-6     2.2027774463959093E-5    0.4618632291281629       1.847535803447844        1.8475021962242444       1.8474036368010602       -1.8473700295774598      1.8473700295774598       -1.8474036368010602      -1.8475021962242444      -1.847535803447844
1.4010042849101176        8.39712155693503E-6      2.2025319453208847E-5    0.4669081183880192       1.8677153437535503       1.867681755267324        1.867583191836831        -1.8675496033506038      1.8675496033506038       -1.867583191836831       -1.867681755267324       -1.8677153437535503
1.4136750853698468        8.392508133167999E-6     2.202287117248746E-5     0.47113068445384854      1.8846055914451778       1.8845720214126467       1.8844734542181432       -1.884439884185611       1.884439884185611        -1.8844734542181432      -1.8845720214126467      -1.8846055914451778
1.420122739028649         8.389914398392755E-6     2.2020921922967854E-5    0.473279375313979        1.8932003438504819       1.8931667841928896       1.8930682183189442       -1.8930346586613511      1.8930346586613511       -1.8930682183189442      -1.8931667841928896      -1.8932003438504819
1.4444243859776018        8.380138434909909E-6     2.2013575068396962E-5    0.48137793789946226      1.9255945525999243       1.9255610320461858       1.9254624711495136       -1.9254289505957747      1.9254289505957747       -1.9254624711495136      -1.9255610320461858      -1.9255945525999243
1.492086087460947         8.331810260108017E-6     2.198919928895343E-5     0.49726120070839375      1.9891274340519627       1.9890941068109234       1.9889954988562286       -1.9889621716151882      1.9889621716151884       -1.9889954988562286      -1.9890941068109234      -1.9891274340519627
1.5272052995579921        8.297709667025224E-6     2.197307095531259E-5     0.5089647141093572       2.035941371069629        2.035908180230962        2.035809532643897        -2.035776341805229       2.035776341805229        -2.035809532643897       -2.035908180230962       -2.035941371069629
1.5364647394665605        8.288718793549596E-6     2.1968818600904758E-5    0.5120504319425446       2.0482842116635687       2.048251056788396        2.048152398751963        -2.048119243876789       2.048119243876789        -2.048152398751963       -2.048251056788396       -2.0482842116635687
1.5675120707591714        8.30251788947172E-6      2.1990343645696478E-5    0.5223971081187432       2.089671008541689        2.089637798470133        2.089539066479815        -2.089505856408257       2.089505856408257        -2.089539066479815       -2.089637798470133       -2.089671008541689
1.5993861885637974        8.316684453577765E-6     2.2012441899713076E-5    0.5330193149750525       2.132159930594817        2.132126663857004        2.1320278559434183       -2.131994589205604       2.131994589205604        -2.1320278559434183      -2.132126663857004       -2.132159930594817
1.6238555146578473        8.314339684755193E-6     2.201231193522859E-5     0.541173781650147        2.164777792215763        2.1647445348570256       2.1646457183441514       -2.1646124609854125      2.1646124609854125       -2.1646457183441514      -2.1647445348570256      -2.164777792215763
1.666223287276428         8.284859467850734E-6     2.1988959036786312E-5    0.5552928737507455       2.2212540315990283       2.221220892161158        2.221122097844807        -2.2210889584069355      2.2210889584069355       -2.221122097844807       -2.221220892161158       -2.2212540315990283
1.705276438410526         8.254845994582947E-6     2.1970772891396345E-5    0.5683074467313189       2.2733122089359394       2.273279189551962        2.2731803842985903       -2.273147364914612       2.273147364914612        -2.2731803842985903      -2.273279189551962       -2.2733122089359394
1.7238424113693709        8.233660861081422E-6     2.1960108740916133E-5    0.5744945705712687       2.29806062993302         2.2980276952895773       2.2979288692805735       -2.2978959346371295      2.2978959346371295       -2.2979288692805735      -2.2980276952895773      -2.29806062993302
1.7460702803272299        8.208297236327782E-6     2.1947341225847516E-5    0.5819020238862824       2.3276903541632796       2.3276575209743355       2.327558670115923        -2.327525836926978       2.3275258369269785       -2.327558670115923       -2.3276575209743355      -2.3276903541632796
1.7965870866387237        8.144436662045683E-6     2.1927521198585737E-5    0.5987367692501425       2.39502914843749         2.394996570690843        2.3948975833102972       -2.3948650055636493      2.3948650055636493       -2.3948975833102972      -2.394996570690843       -2.39502914843749
1.8221842715064704        8.130196741570374E-6     2.1929032680719635E-5    0.6072670691676628       2.429150324162177        2.429117803375211        2.429018749966091        -2.4289862291791255      2.4289862291791255       -2.429018749966091       -2.429117803375211       -2.429150324162177
1.828123488936356         8.126892706996876E-6     2.1929383384168555E-5    0.6092463222071689       2.4370673307642425       2.4370348231934145       2.436935754463936        -2.4369032468931087      2.4369032468931087       -2.436935754463936       -2.4370348231934145      -2.4370673307642425
1.875616403895174         8.09745570508726E-6      2.1930429431108595E-5    0.6250734232477084       2.500375679190538        2.5003432893677173       2.5002440966139496       -2.5002117067911303      2.5002117067911303       -2.5002440966139496      -2.5003432893677173      -2.500375679190538
1.9076915390949405        8.020958859022856E-6     2.1971038735938905E-5    0.6357624676935741       2.5431318258082234       2.543099741972787        2.542999999575806        -2.5429679157403706      2.5429679157403706       -2.542999999575806       -2.543099741972787       -2.5431318258082234
1.914007833450912         8.005894960022922E-6     2.1979035594602014E-5    0.6378673738984478       2.551551444490496        2.5515194209106555       2.5514195702769262       -2.5513875466970872      2.5513875466970872       -2.5514195702769262      -2.5515194209106555      -2.551551444490496
2.0051504140115637        7.715833326775603E-6     2.1843435278195338E-5    0.6682402277042273       2.6730418727893994       2.673011009456091        2.6729108121777267       -2.6728799488444217      2.6728799488444217       -2.6729108121777267      -2.673011009456091       -2.6730418727893994
2.0077330887085854        7.710707774493465E-6     2.1843146589663057E-5    0.6691008997066367       2.676484549681867        2.6764537068507672       2.676353490802325        -2.676322647971229       2.676322647971229        -2.676353490802325       -2.6764537068507672      -2.676484549681867
2.009338280815214         7.700966978987141E-6     2.1837462094641876E-5    0.6696357991352804       2.6786241108613655       2.678593306993448        2.678493086088794        -2.67846228222088        2.67846228222088         -2.678493086088794       -2.678593306993448       -2.6786241108613655
2.032535936933279         7.661667425725533E-6     2.1831195891211172E-5    0.6773663175519334       2.7095460871302612       2.709515440460557        2.70941509995491         -2.7093844532852107      2.7093844532852107       -2.70941509995491        -2.709515440460557       -2.7095460871302612
2.0431281285711136        7.643723009388898E-6     2.1828334704410667E-5    0.6808961195333165       2.7236652505834007       2.723634675691362        2.723534280575171        -2.723503705683136       2.723503705683136        -2.723534280575171       -2.723634675691362       -2.7236652505834007
2.15531320685399          8.072486318248611E-6     2.1973059669471513E-5    0.7182842638935583       2.87321911972588         2.873186829780606        2.873087281367859        -2.8730549914225896      2.8730549914225896       -2.873087281367859       -2.873186829780606       -2.87321911972588
2.1636899748306617        8.104501723596767E-6     2.198386616415987E-5     0.7210760060323331       2.8843861847312744       2.884353766724379        2.8842542815342855       -2.8842218635273946      2.8842218635273946       -2.8842542815342855      -2.884353766724379       -2.8843861847312744
2.1676787263514004        8.125737587978983E-6     2.1997346339744698E-5    0.7224053721145663       2.8897037319724634       2.88967122902211         2.8895717478944203       -2.889539244944072       2.889539244944072        -2.8895717478944203      -2.88967122902211        -2.8897037319724634
2.171573970990634         8.071900179289939E-6     2.1996169134158865E-5    0.7237033467230494       2.894895519199961        2.894863231599242        2.894763542185151        -2.8947312545844377      2.8947312545844377       -2.894763542185151       -2.894863231599242       -2.894895519199961
2.1954187523807427        7.859531580880152E-6     2.2039970220329164E-5    0.731649346565244        2.9266792252348015       2.926647787108477        2.926546985413475        -2.926515547287155       2.926515547287155        -2.926546985413475       -2.926647787108477       -2.9266792252348015
2.2160354854469078        9.475605417473912E-6     2.2349373546592596E-5    0.7385244399218309       2.9541837590188003       2.9541458565971292       2.954049662777516        -2.9540117603558502      2.9540117603558502       -2.954049662777516       -2.9541458565971292      -2.9541837590188003
2.251072042542475         1.199354739209223E-5     2.2754044462522036E-5    0.7502072773049064       3.0009213584477994       3.00087338425823         3.00078483418102         -3.000736859991455       3.000736859991455        -3.00078483418102        -3.00087338425823        -3.0009213584477994
2.3338393631757004        1.794171490696793E-5     2.3710003901073612E-5    0.7778057980429264       3.1113302056132244       3.111258438753595        3.1111879455898133       -3.1111161787301884      3.1111161787301884       -3.1111879455898133      -3.111258438753595       -3.1113302056132244
2.3477093761903713        1.8672954224524985E-5    2.3819135919355208E-5    0.7824299027816244       3.1298284144427067       3.129753722625807        3.129685499627186        -3.1296108078102907      3.1296108078102907       -3.129685499627186       -3.129753722625807       -3.1298284144427067
2.5                       3.99957261825617E-5      2.7023126864102772E-5    0.8332373492061762       3.333110457657663        3.332950474752932        3.3329483188964755       -3.3327883359917463      3.3327883359917467       -3.3329483188964755      -3.332950474752932       -3.333110457657663
2.581033342222556         3.3429734924583736E-6    1.2901265098394954E-5    0.7817161488046206       3.1269099849607627       3.126896613066792        3.1268325773701706       -3.126819205476201       3.126819205476201        -3.1268325773701706      -3.126896613066792       -3.1269099849607627
2.582762505735589         -6.241729340667955E-6    4.127146698191603E-5     0.7806706896892904       3.1227940896994264       3.122819056616788        3.1225464608975333       -3.122571427814896       3.122571427814896        -3.1225464608975333      -3.122819056616788       -3.1227940896994264
2.5911027532973923        -9.030059207073514E-5    1.8649102253665093E-7    0.7758080094586361       3.1030519961234715       3.1034131984917535       3.1030508771773344       -3.1034120795456177      3.1034120795456177       -3.1030508771773344      -3.1034131984917535      -3.1030519961234715
2.6469869475373695        -1.1921323723278012E-5   3.8928810218289735E-6    0.7434018208345115       2.973595119333665        2.9736428046285575       2.973571762047533        -2.9736194473424264      2.973619447342426        -2.973571762047533       -2.9736428046285575      -2.973595119333665
2.662066684445113         9.22846221844287E-6      4.893009713437583E-6     0.7346573662480139       2.9386626009456327       2.938625687096758        2.938633242887351        -2.938596329038478       2.938596329038477        -2.938633242887351       -2.938625687096758       -2.9386626009456327
2.6655250114711775        -3.5262755942416617E-6   6.246546941086732E-5     0.7327598424196482       2.931219713535637        2.9312338186380127       2.9308449207191707       -2.930859025821548       2.9308590258215474       -2.9308449207191707      -2.9312338186380127      -2.931219713535637
2.682205506594784         -1.4070423305541016E-4   -1.5691240039842247E-5   0.7239672781803549       2.89554063053519         2.896103447467411        2.895634777975428        -2.89619759490765        2.8961975949076497       -2.895634777975428       -2.896103447467411       -2.89554063053519
2.7335592172641086        2.657417669342326E-5     7.011826045082072E-8     0.6970600015099713       2.7882933647480534       2.78818706804128         2.7882929440384885       -2.788186647331717       2.7881866473317167       -2.7882929440384885      -2.78818706804128        -2.7882933647480534
2.743100026667669         5.765219236051044E-5     2.998360709230755E-6     0.6920610015363559       2.7683683056122725       2.7681376968428304       2.768350315448015        -2.768119706678575       2.768119706678575        -2.768350315448015       -2.7681376968428304      -2.7683683056122725
2.7481688300642624        7.94830954594268E-5      4.445303117071972E-6     0.6896166266732483       2.758638808793264        2.758320876411426        2.758612136974559        -2.758294204592724       2.758294204592724        -2.758612136974559       -2.758320876411426       -2.758638808793264
2.7918731898708367        2.677140386005371E-4     1.692116510339215E-5     0.6685406783357749       2.6747489049156106       2.673678048761209        2.674647377924989        -2.6735765217705882      2.6735765217705882       -2.674647377924989       -2.673678048761209       -2.6747489049156106
2.7974696781290502        3.3183251919706875E-4    2.68904008936192E-5      0.6658498019516699       2.6641435440477546       2.6628162139709666       2.6639822016423906       -2.6626548715656044      2.6626548715656044       -2.6639822016423906      -2.6628162139709666      -2.6641435440477546
2.817499820283297         1.741881267780434E-4     -7.090997261047075E-5    0.6561378600609339       2.62468708657946         2.6239903340723485       2.6251125464151217       -2.6244157939080104      2.6244157939080104       -2.6251125464151217      -2.6239903340723485      -2.62468708657946
2.8241333688902257        3.1653739882255686E-5    -1.7595804218098606E-5   0.6527827160159078       2.6111413841307414       2.611014769171213        2.6112469589560487       -2.6111203439965203      2.6111203439965203       -2.6112469589560487      -2.611014769171213       -2.6111413841307414
2.828123760498948         5.2025811038006113E-5    -1.6285587074858342E-5   0.6510191395195962       2.6041317529392365       2.6039236496950853       2.6042294664616845       -2.6040213632175333      2.6040213632175333       -2.6042294664616845      -2.6039236496950853      -2.6041317529392365
2.8648414873385466        2.3948013061374267E-4    -4.229578571612403E-6    0.6347915291991546       2.5396323883221315       2.538674467799677        2.5396577657935593       -2.5386998452711054      2.5386998452711054       -2.5396577657935593      -2.538674467799677       -2.5396323883221315
2.8718370976613135        3.252132931549289E-4     8.531956437535931E-6     0.6317097399245692       2.5275149821539          2.526214128981281        2.5274637904152737       -2.5261629372426544      2.5261629372426544       -2.5274637904152737      -2.526214128981281       -2.5275149821539
2.8968747753541213        1.4814704884110234E-4    -1.1264482860798741E-4   0.6205784126147191       2.4822720100707345       2.481679421875371        2.4829478790423813       -2.4823552908470177      2.4823552908470177       -2.4829478790423813      -2.481679421875371       -2.4822720100707345
2.9051667111127824        -2.3400930021378268E-5   -4.5646537983179154E-5   0.6167185090185975       2.4666902946003972       2.4667838983204833       2.4669641738282957       -2.4670577775483817      2.4670577775483817       -2.4669641738282957      -2.4667838983204833      -2.4666902946003972
2.9078800049593           -7.382598780097721E-6    -4.46392937319079E-5     0.6156286536205046       2.462365931403262        2.462395461798383        2.4626337671656526       -2.4626632975607734      2.4626632975607734       -2.4626337671656526      -2.462395461798383       -2.462365931403262
2.937809784806255         1.69312280096476E-4      -3.352859198048927E-5    0.6036066854979616       2.4146647807760977       2.4139875316557124       2.4148659523279794       -2.414188703207594       2.414188703207594        -2.4148659523279794      -2.4139875316557124      -2.4146647807760977
2.954927470640954         1.88335616555199E-4      4.2619415214108355E-5    0.5965417660519206       2.3866715936864344       2.385918251220214        2.3864158771951485       -2.3856625347289286      2.3856625347289286       -2.3864158771951485      -2.385918251220214       -2.3866715936864344
2.986200053335338         1.2404200617244747E-4    -4.105261366629787E-5    0.5837562225126993       2.3351498162221436       2.334653648197454        2.3353961319041394       -2.33489996387945        2.33489996387945         -2.3353961319041394      -2.334653648197454       -2.3351498162221436
2.999728162019844         2.0536443425978913E-5    1.8535224225844893E-5    0.5785142429413002       2.31415365032473         2.314071504551027        2.3140424389793743       -2.31396029320567        2.31396029320567         -2.3140424389793743      -2.314071504551027       -2.31415365032473
3.016483921227506         -1.4285577791632847E-5   -5.230379950351923E-5    0.5722034174634953       2.2886281872998873       2.288685329611054        2.2889420100969073       -2.288999152408074       2.288999152408074        -2.2889420100969073      -2.288685329611054       -2.2886281872998873
3.0242312452506557        -3.038616017470258E-5    -8.505748517740165E-5    0.5692854947824539       2.2768260343539337       2.276947578994633        2.277336379264997        -2.2774579239056965      2.2774579239056965       -2.277336379264997       -2.276947578994633       -2.2768260343539337
3.0725905632558748        5.535308495481229E-6     5.0898689888799475E-5    0.5512564262707559       2.205189471769681        2.2051673305356987       2.2048840796303466       -2.204861938396366       2.204861938396366        -2.2048840796303466      -2.2051673305356987      -2.205189471769681
3.079650714870969         -6.89970216504907E-5     1.0773212176373465E-4    0.5486688623506597       2.1948606517246287       2.1951366398112304       2.194214258994045        -2.1944902470806484      2.1944902470806484       -2.194214258994045       -2.1951366398112304      -2.1948606517246287
3.0908678496066133        -8.353774832865689E-5    1.1343842444951557E-4    0.5448907134990714       2.179736093772976        2.1800702447662914       2.179055463226278        -2.179389614219594       2.179389614219594        -2.1790554632262777      -2.1800702447662914      -2.179736093772976
3.10905530874976          -1.0224065369514208E-4   1.4943551038931963E-4    0.5386477179734589       2.1548346971176127       2.1552436597323936       2.1539380840552758       -2.154347046670057       2.154347046670057        -2.1539380840552753      -2.1552436597323936      -2.1548346971176127