% Model:              Sphere_potential.mph
% Version:            COMSOL 6.2.0.278
% Date:               Oct 11 2024, 12:27
% Dimension:          1
% Nodes:              698
% Expressions:        11
% Description:        Line graph
% Arc length (m)          Magnetic scalar potential Magnetic scalar potential Magnetic scalar potential Magnetic scalar potential Magnetic scalar potential Magnetic scalar potential Magnetic scalar potential Magnetic scalar potential Magnetic scalar potential Magnetic scalar potential Magnetic scalar potential
0                         8.645312016610299E-6     2.2163235898260518E-5    2.0976183541587118E-5    1.6768506589417346E-4    1.331038178282347E-4     3.4705650505343494E-5    -1.244024389265852E-7    1.244024389196463E-7     -3.4705650505343494E-5   -1.331038178282347E-4    -1.6768506589416555E-4
0.03250026226800928       0.006448965986244571     0.004852388273855872     -0.007224425427850123    -0.0014426049173438954   -0.027238468862321643    -0.030556934560478494    0.056352798505456686     -0.05635279850545669     0.030556934560478494     0.027238468862321643     0.001442604917343904
0.04738231642159015       0.00939802535102617      0.007064175715962588     -0.01054213569241879     -0.0021799649197351747   -0.039772066323839304    -0.044565019215510135    0.08215712061961472      -0.08215712061961473     0.044565019215510135     0.039772066323839304     0.0021799649197351972
0.05895017911332645       0.01169033751771481      0.00878340433652508      -0.013121001243869553    -0.0027531169304734473   -0.04951446700133213     -0.05545354294962339     0.10221489302048253      -0.10221489302048253     0.05545354294962339      0.04951446700133213      0.0027531169304734707
0.06824032259007232       0.013531291936179931     0.010164115731856561     -0.01519208664847049     -0.003213415525952501    -0.05733858327067168     -0.06419810991709136     0.11832327766181096      -0.11832327766181097     0.06419810991709136      0.05733858327067168      0.0032134155259525253
0.07155497831922661       0.014188131104008883     0.010656743531233368     -0.01593103488098293     -0.003377646722213936    -0.060130171138248936    -0.06731810790961366     0.12407063232564905      -0.12407063232564905     0.06731810790961366      0.060130171138248936     0.0033776467222139594
0.07493560717731354       0.014858043520560842     0.011159176204849294     -0.01668469084185565     -0.003545147711753122    -0.06297732179399597     -0.0705002049408484      0.12993237902309157      -0.12993237902309157     0.0705002049408484       0.06297732179399597      0.0035451477117531324
0.08546273295918619       0.01694412084967916      0.012723729046188195     -0.019031541393814785    -0.00406673673733632     -0.07184322013605243     -0.08040911101446499     0.14818559441318144      -0.14818559441318144     0.08040911101446499      0.07184322013605243      0.004066736737336334
0.09009421321365231       0.01786190464783449      0.013412064595949829     -0.020064054214847995    -0.004296213775873606    -0.07574383236721102     -0.08476860135157208     0.15621621994290985      -0.15621621994290985     0.08476860135157208      0.07574383236721102      0.004296213775873622
0.09332391169125429       0.018501908547642193     0.013892065980071693     -0.020784062659266987    -0.0044562356015685955   -0.07846386979213682     -0.08780863148199824     0.16181626567256682      -0.16181626567256682     0.08780863148199824      0.07846386979213682      0.00445623560156861
0.20968455426254498       0.04156017862824658      0.031185711925905513     -0.046724765688988396    -0.01022156972174448     -0.1764622842347302      -0.19733584127717677     0.3635765557901631       -0.3635765557901631      0.19733584127717674      0.1764622842347302       0.010221569721744511
0.27223137633246897       0.05395459006674296      0.040481491051153604     -0.060668556829785315    -0.013320574032194932    -0.22913893429916604     -0.25620952033911565     0.47202788060608747      -0.47202788060608747     0.25620952033911565      0.22913893429916604      0.013320574032194981
0.313735430731453         0.0621791212265421       0.04664986820135025      -0.06992120802934523     -0.015376985060246273    -0.26409346996641386     -0.29527619426834695     0.5439926791745153       -0.5439926791745153      0.29527619426834695      0.26409346996641386      0.015376985060246328
0.34478724815123296       0.06833241537587204      0.051264823388236        -0.07684370382322546     -0.016915514376450135    -0.2902451758799373      -0.3245044547058654      0.5978341162093533       -0.5978341162093533      0.3245044547058654       0.2902451758799373       0.01691551437645019
0.3478436011635736        0.06893806887668756      0.05171906202077709      -0.07752506776673053     -0.017066947251216068    -0.2928192227579654      -0.3273813193758779      0.6031335948826281       -0.6031335948826281      0.3273813193758779       0.2928192227579654       0.017066947251216123
0.3516955296409481        0.06970137532123148      0.0522915399791087       -0.07838379233498674     -0.017257798760158247    -0.29606330004508324     -0.33100703863480974     0.6098125399197355       -0.6098125399197355      0.33100703863480974      0.29606330004508324      0.017257798760158302
0.41024610460125766       0.08130388235469674      0.06099339152114528      -0.0914366865037835      -0.02015880674230504     -0.34537433616109103     -0.3861191558691759      0.7113346852879628       -0.7113346852879628      0.3861191558691759       0.34537433616109103      0.020158806742305076
0.4870735708231593        0.0965281772110186       0.0724115749611373       -0.10856411499669044     -0.02396538068131305     -0.41007808952538644     -0.458434830448136       0.8445475392922104       -0.8445475392922103      0.458434830448136        0.41007808952538644      0.023965380681313056
0.5042459366243958        0.09993108969204957      0.07496375069327815      -0.1123924135667206      -0.02481622280294922     -0.4245405815711465      -0.4745987269626173      0.8743230857308155       -0.8743230857308155      0.4745987269626173       0.4245405815711465       0.02481622280294922
0.511488253841087         0.10136624275032974      0.076040112169743        -0.11400696974338843     -0.025175056963665635    -0.4306400279649835      -0.4814157299821228      0.8868807009834417       -0.8868807009834416      0.4814157299821228       0.4306400279649835       0.025175056963665635
0.5936847374592997        0.1176544718338253       0.08825624392961813      -0.13233133685460283     -0.029247671961906828    -0.49986555929720694     -0.5587851355396146      1.029403022874916        -1.0294030228749156      0.5587851355396146       0.49986555929720694      0.029247671961906842
0.6019536349698124        0.11929305405766796      0.08948517656822733      -0.13417475286119793     -0.02965737362477417     -0.5068295898554449      -0.5665684330341372      1.0437406492648094       -1.0437406492648091      0.5665684330341372       0.5068295898554449       0.0296573736247742
0.6679324247701028        0.1323675498358097       0.09929101553031182      -0.14888364812855526     -0.032926446251666644    -0.5623966455949043      -0.6286725394335366      1.1581427387767755       -1.1581427387767753      0.6286725394335366       0.5623966455949043       0.032926446251666644
0.6769105375103128        0.13414667182262566      0.10062535277890672      -0.15088517179875713     -0.03337128521305762     -0.5699579725035591      -0.637123401886497       1.1737100891769996       -1.1737100891769994      0.637123401886497        0.5699579725035591       0.03337128521305763
0.6866953205648865        0.136085645147475        0.10207957799011408      -0.15306652970340218     -0.03385609454831694     -0.5781986751382158      -0.6463335624890005      1.1906761430789006       -1.1906761430789001      0.6463335624890005       0.5781986751382158       0.03385609454831694
0.7757439724635563        0.15373171678043424      0.1153140854011962       -0.17291847584355896     -0.038268213609779354    -0.653195080731515       -0.7301527260169554      1.3450795931386923       -1.345079593138692       0.7301527260169554       0.653195080731515        0.03826821360977939
0.7984878116175418        0.15823868421783166      0.11869430016544236      -0.17798884365436557     -0.03939510568547237     -0.672349842556798       -0.7515609066781253      1.3845156435494521       -1.3845156435494517      0.7515609066781253       0.672349842556798        0.039395105685472435
0.8455522617902722        0.1675650755518269       0.12568907128864187      -0.18848109483383751     -0.041727014365771246    -0.7119873165730778      -0.795861442097621       1.4661217443049288       -1.4661217443049284      0.795861442097621        0.7119873165730778       0.04172701436577128
0.8632057273217497        0.17106332384215406      0.12831274858782685      -0.1924166469033376      -0.04260169416556235     -0.7268549895341775      -0.812478185692522       1.4967314810611383       -1.496731481061138       0.812478185692522        0.7268549895341775       0.042601694165562386
0.9879928437355252        0.19579140182942756      0.14685874353911363      -0.22023590283877634     -0.04878457707891        -0.831950184396619       -0.9299370383135904      1.7131026456313012       -1.7131026456313008      0.9299370383135904       0.831950184396619        0.04878457707891002
0.9976656477318813        0.19770818542487323      0.148296326619733        -0.22239229687762574     -0.04926383680155833     -0.84009657850105        -0.9390417965199549      1.729874538219448        -1.7298745382194478      0.9390417965199549       0.84009657850105         0.04926383680155835
1.0070720199368377        0.1995721724318081       0.14969431235001684      -0.2244892944898249      -0.04972989604563332     -0.8480185857728647      -0.9478957701457329      1.7461844598729657       -1.7461844598729659      0.947895770145733        0.8480185857728647       0.04972989604563332
1.0153124616720182        0.20120511482200035      0.15091901521297588      -0.2263263665817586      -0.05013819104410653     -0.8549586503321069      -0.9556522823219602      1.760472741609962        -1.7604727416099621      0.9556522823219602       0.8549586503321069       0.05013819104410653
1.0204884648806074        0.20223080189605383      0.15168827805932636      -0.22748027196006232     -0.05039464987016301     -0.8593178574543773      -0.9605243182261196      1.769447525810335        -1.7694475258103353      0.9605243182261197       0.8593178574543773       0.05039464987016301
1.0714906795702932        0.2123375078959383       0.15926828180358635      -0.2388503825420187      -0.05292166896543975     -0.9022717005491918      -1.0085313597869563      1.8578813913707097       -1.8578813913707097      1.0085313597869565       0.9022717005491918       0.05292166896543975
1.1759921141525247        0.23304573157161         0.17479939667365144      -0.2621472703303434      -0.058099428157199894    -0.9902823544436385      -1.1068958081991072      2.039078734485547        -2.039078734485547       1.1068958081991072       0.9902823544436385       0.05809942815719989
1.3081928881484721        0.2592428933265643       0.194447201636229        -0.29161926862861126     -0.06464968295263038     -1.1016212562588863      -1.2313328927700031      2.2683044660762595       -2.2683044660762595      1.2313328927700031       1.1016212562588863       0.06464968295263038
1.3322148134420158        0.2640031273887617       0.19801736440818724      -0.2969745635195898      -0.06583990607627499     -1.1218524156313203      -1.2539440925253973      2.3099566020804434       -2.309956602080443       1.253944092525397        1.1218524156313203       0.065839906076275
1.350922224543448         0.26771022603780087      0.2007976779634214       -0.3011450726303099      -0.06676680455537436     -1.1376077087065766      -1.271552872335902       2.342393776487105        -2.342393776487105       1.2715528723359018       1.1376077087065766       0.06676680455537436
1.361741895744811         0.2698542724728236       0.20240570964896273      -0.3035571402239018      -0.06730288700307266     -1.1467199768943657      -1.281737144896848       2.361154234788142        -2.361154234788142       1.281737144896848        1.1467199768943657       0.06730288700307267
1.3772374014112554        0.27292489076770104      0.20470866970010254      -0.3070116100470636      -0.06807064955254578     -1.1597702126233487      -1.2963226677531599      2.3880222308239634       -2.3880222308239634      1.2963226677531599       1.1597702126233487       0.0680706495525458
1.404506037043872         0.27832849444816565      0.20876136600203693      -0.31309070684708973     -0.0694217404859179      -1.182735718278579       -1.3219899364981385      2.4353039142907997       -2.4353039142907997      1.3219899364981385       1.182735718278579        0.06942174048591791
1.4453846848754373        0.28642908548198887      0.21483679770816738      -0.3222039341386568      -0.07144717246614832     -1.2171635143941022      -1.3604679587151516      2.5061843006431057       -2.5061843006431057      1.3604679587151516       1.2171635143941022       0.07144717246614835
1.5123368677607074        0.29969645057780026      0.22478728064636103      -0.33712980116217917     -0.07476446155403407     -1.2735502638652334      -1.4234881454321993      2.622273947743399        -2.622273947743399       1.4234881454321993       1.2735502638652334       0.0747644615540341
1.51990347554757          0.30119586304806983      0.22591183578291463      -0.3388166504778689      -0.07513936846659293     -1.2799228206588704      -1.43061038316408        2.635393835356358        -2.635393835356358       1.43061038316408         1.2799228206588704       0.07513936846659296
1.5214892529377093        0.3015101035189417       0.22614751525246607      -0.3391701731634291      -0.07521793985843578     -1.2812583539342006      -1.4321030313732315      2.638143445448997        -2.638143445448997       1.4321030313732315       1.2812583539342006       0.0752179398584358
1.5471029692951221        0.30658576160393036      0.2299542565347333       -0.34488033270618945     -0.07648703801269827     -1.302830084428418       -1.456212577221097       2.6825556236368175       -2.6825556236368175      1.456212577221097        1.302830084428418        0.07648703801269828
1.5849451017013492        0.3140846193997711       0.23557838411287504      -0.3533166012255953      -0.07836201376421482     -1.3347004913632976      -1.4918323184414641      2.7481707960405477       -2.7481707960405473      1.4918323184414641       1.3347004913632976       0.07836201376421485
1.61945542151644          0.32092324064077693      0.24070733750754852      -0.36101009933204137     -0.08007190352396731     -1.3637648660870734      -1.5243159285692571      2.8080088911323644       -2.8080088911323644      1.5243159285692571       1.3637648660870734       0.08007190352396733
1.6585188360323935        0.3286641218494009       0.24651298229724522      -0.369718636570853       -0.08200735569287605     -1.396663843090478       -1.561085249476346       2.8757417368739495       -2.875741736873949       1.561085249476346        1.396663843090478        0.08200735569287605
1.6904601117410238        0.33499362413332345      0.25126009441158925      -0.3768393744163643      -0.0835899661640437      -1.423564462697336       -1.5911505326335784      2.931125029166872        -2.9311250291668713      1.5911505326335784       1.423564462697336        0.0835899661640437
1.754250627889887         0.34763437776108536      0.26074067451460836      -0.3910603391958215      -0.08675057771729133     -1.4772880887616315      -1.6511946248049405      3.0417321358492813       -3.0417321358492813      1.6511946248049405       1.4772880887616315       0.08675057771729135
1.7877630121173134        0.35427520492588227      0.2657213027065771       -0.39853133119503525     -0.08841100680864575     -1.5055118265121736      -1.6827388230481075      3.099839642751636        -3.099839642751636       1.6827388230481075       1.5055118265121736       0.08841100680864578
1.8150109893844224        0.35967473038828196      0.2697709293404267       -0.40460582506410747     -0.08976105145858676     -1.5284599730117132      -1.7083866275011457      3.1470855490542733       -3.1470855490542733      1.7083866275011457       1.5284599730117132       0.08976105145858676
1.8388380091259813        0.3643962680952883       0.27331208920270456      -0.4099175710960396      -0.090941480585469       -1.5485265529666208      -1.7308140158016951      3.188399088182848        -3.188399088182848       1.7308140158016951       1.5485265529666208       0.090941480585469
1.8652653254237959        0.3696330778914156       0.2772397038501342       -0.41580899998652265     -0.0922507326128578      -1.5707830441785187      -1.7556889557136617      3.234221267279324        -3.234221267279324       1.7556889557136617       1.5707830441785187       0.0922507326128578
1.9183816220141967        0.38015855856071784      0.28513383736704256      -0.42765020021020506     -0.09488217161825772     -1.6155164058611278      -1.805685195820512       3.326319430063383        -3.326319430063383       1.805685195820512        1.6155164058611278       0.09488217161825775
1.9407452432062424        0.3845901174955425       0.2884575002234708       -0.4326357140050777      -0.09599012035881432     -1.6343505903409832      -1.826735121699638       3.3650955916818073       -3.3650955916818073      1.826735121699638        1.6343505903409832       0.09599012035881434
1.9715031427364513        0.3906851433267053       0.29302873398246776      -0.4394926067154409      -0.0975139382609505      -1.6602545115677705      -1.855686342155756       3.418426915462577        -3.418426915462577       1.855686342155756        1.6602545115677705       0.0975139382609505
2.0355090587242683        0.40336841824460945      0.3025411747607136       -0.45376124553608255     -0.10068462137297104     -1.7141582943514075      -1.915931669937252       3.5294053429156893       -3.5294053429156893      1.915931669937252        1.7141582943514075       0.10068462137297104
2.0958650123030838        0.41532839534762417      0.3115111665069754       -0.46721630302579586     -0.1036749218870097      -1.7649885032775052      -1.972741920928861       3.6340555023193573       -3.6340555023193573      1.972741920928861        1.7649885032775052       0.10367492188700972
2.1177070570933196        0.41965658013416124      0.3147573291708719       -0.4720854938592882      -0.10475682765621541     -1.783383148192859       -1.9933008026814456      3.67192712321809         -3.67192712321809        1.9933008026814456       1.783383148192859        0.10475682765621541
2.118788089602431         0.4198707958133535       0.31491799212176486      -0.47232648565445323     -0.10481037462581172     -1.7842935578792245      -1.9943183273564         3.673801510609813        -3.673801510609813       1.9943183273564          1.7842935578792245       0.10481037462581172
2.1365405973216727        0.42338814928653323      0.31755677509389363      -0.4762849056201246      -0.10569299862575166     -1.7992455957718831      -2.0110336491891125      3.7045862463352446       -3.7045862463352446      2.0110336491891125       1.7992455957718831       0.10569299862575166
2.1374417757530852        0.42356670226258675      0.31769072880551963      -0.4764858486503688      -0.10573780365974317     -1.8000046127100888      -2.01188217649286        3.7061489855432064       -3.7061489855432064      2.01188217649286         1.8000046127100888       0.10573780365974318
2.1541234733441157        0.42687226621371227      0.3201700395112208       -0.48020509612098206     -0.10656573352284163     -1.8140547983776893      -2.0275859705901653      3.7350750354450137       -3.7350750354450137      2.0275859705901653       1.8140547983776893       0.10656573352284163
2.2150516340662847        0.43894597053304835      0.3292235042718957       -0.49378576056261314     -0.1095805883686692      -1.865364470500862       -2.084921614000042       3.840705496132235        -3.840705496132235       2.084921614000042        1.865364470500862        0.10958058836866921
2.2165094194017523        0.43923484958163406      0.3294401201685          -0.49411069558829346     -0.10965272268440623     -1.8665921210109417      -2.086293443695405       3.8432328420219406       -3.8432328420219406      2.086293443695405        1.8665921210109417       0.10965272268440623
2.2380853834978858        0.4435100256668141       0.3326463428957872       -0.49892022409897085     -0.11072181637489417     -1.88476191904215        -2.106599873749616       3.8806399764168718       -3.8806399764168718      2.106599873749616        1.88476191904215         0.11072181637489417
2.2475658892215233        0.445388667714553        0.3340554122033141       -0.5010339645469863      -0.11119228614889716     -1.8927469570071094      -2.11552475936878        3.897079430226992        -3.897079430226992       2.11552475936878         1.8927469570071094       0.11119228614889716
2.256565250196065         0.4471715199121042       0.33539275474932234      -0.503040145176297       -0.11163927663301319     -1.9003253562814297      -2.1239958051289456      3.912681884777362        -3.912681884777362       2.1239958051289456       1.9003253562814297       0.11163927663301319
2.263796302580759         0.4486045237644798       0.3364679183244601       -0.5046523930792411      -0.11199676981462484     -1.906414864872544       -2.130804279761384       3.9252223748193034       -3.9252223748193034      2.130804279761384        1.906414864872544        0.11199676981462484
2.2769537990609328        0.45121199251738475      0.33842426716594143      -0.5075860111723774      -0.11264725815691633     -1.9174952282264557      -2.1431928611525635      3.948040831222103        -3.948040831222103       2.1431928611525635       1.9174952282264557       0.11264725815691633
2.368533492393113         0.46935174505400595      0.3520383883184247       -0.5280003171233328      -0.117182613430046       -1.9945895936460696      -2.229412943340593       4.106819923556616        -4.106819923556616       2.229412943340593        1.9945895936460696       0.117182613430046
2.370095110164523         0.46966103658546904      0.3522705882955723       -0.5283484927001934      -0.1172601327431191      -1.9959042790849952      -2.230883662516551       4.109527808858427        -4.109527808858427       2.230883662516551        1.9959042790849952       0.1172601327431191
2.3862765537916104        0.4728659075675591       0.3546766385526928       -0.5319562791716625      -0.1180633858934542      -2.0095270161636902      -2.2461232172096093      4.137586847479845        -4.137586847479845       2.2461232172096093       2.0095270161636902       0.1180633858934542
2.4928187930892145        0.4939514482147016       0.37051711220147704      -0.5557037494083831      -0.1233607645996987      -2.099166557458505       -2.34646343780856        4.3222692306673665       -4.3222692306673665      2.34646343780856         2.099166557458505        0.1233607645996987
2.499615630461233         0.4952964695112748       0.3715270686701361       -0.5572191614232815      -0.12370250066016908     -2.1048883787052683      -2.352864912680985       4.334050790726084        -4.334050790726084       2.352864912680985        2.1048883787052683       0.12370250066016908
2.5115059529833106        0.4906539185230333       0.3681447303443305       -0.552421410813885       -0.1239436151764822      -2.0865592892686147      -2.3328119972424637      4.295427671334597        -4.295427671334597       2.3328119972424637       2.0865592892686147       0.1239436151764822
2.5540142369237957        0.4752293560053145       0.35663328763558033      -0.5351011051058515      -0.1200458455060369      -2.020963269527294       -2.2598455713195174      4.160762995340777        -4.160762995340777       2.2598455713195174       2.020963269527294        0.1200458455060369
2.566224654316449         0.47067782613081016      0.3532532035653351       -0.5300803882986642      -0.11920629023703187     -2.0019175947602714      -2.238725511629041       4.121436816152283        -4.121436816152283       2.238725511629041        2.0019175947602714       0.11920629023703189
2.605651349994786         0.455967760543338        0.3426082515451642       -0.5134089512786817      -0.11387552939255885     -1.9377465715659097      -2.1695250386635423      3.993396080836895        -3.993396080836895       2.1695250386635423       1.9377465715659097       0.11387552939255885
2.620737854455263         0.45081687748084076      0.338161680569538        -0.507161559025753       -0.11252743943271726     -1.9157949493560789      -2.1414975228499435      3.9447650327733066       -3.9447650327733066      2.1414975228499435       1.9157949493560789       0.11252743943271726
2.633386709666131         0.4466368009164199       0.3352546796663255       -0.5024978203141792      -0.11095364042490172     -1.89750084409058        -2.1224817184228524      3.909028922088532        -3.909028922088532       2.1224817184228524       1.89750084409058         0.11095364042490172
2.6590050528186344        0.4380877963389015       0.3293047824157509       -0.4929583935059324      -0.10774363409867477     -1.8600948194542792      -2.083572328593179       3.8359235139487846       -3.8359235139487846      2.083572328593179        1.8600948194542792       0.10774363409867477
2.6836772986190036        0.4298545104847219       0.32357461764360895      -0.48377126217559474     -0.10465217480210923     -1.8240702167409957      -2.0460998806637614      3.7655179226026494       -3.7655179226026494      2.0460998806637614       1.8240702167409957       0.10465217480210924
2.6987709677643283        0.42479406148520577      0.3199581277738985       -0.47827304539983917     -0.10362967530725038     -1.8028059212480725      -2.02337844195064        3.7225546878914635       -3.7225546878914635      2.02337844195064         1.8028059212480725       0.1036296753072504
2.7093110861115344        0.4215966980912962       0.3171734841545406       -0.4745293466326756      -0.10340353788448889     -1.7897903302496725      -2.0064444428117314      3.6928312351769157       -3.6928312351769157      2.0064444428117314       1.7897903302496725       0.10340353788448889
2.7411437727211605        0.41194019675586346      0.30876345641723246      -0.46322283320557056     -0.10272057005885885     -1.750481357082312       -1.9553013085622526      3.603062095585706        -3.603062095585706       1.9553013085622526       1.750481357082312        0.10272057005885887
2.791598582995958         0.3971629169272626       0.2986903756214847       -0.4475556381695307      -0.09982559195914399     -1.6884772596681934      -1.891967845688052       3.4806195133971007       -3.4806195133971007      1.891967845688052        1.6884772596681934       0.09982559195914405
2.791863046141738         0.39708569469411387      0.2986365672880825       -0.4474714606686704      -0.0998047514222067      -1.6881475301986613      -1.8916241551507016      3.4799669339271557       -3.4799669339271557      1.8916241551507016       1.6881475301986613       0.09980475142220675
2.7919370853608183        0.3970640755236199       0.2986215030833013       -0.44744789429835646     -0.09979891689628248     -1.6880552189907614      -1.89152793539609        3.4797842374905685       -3.4797842374905685      1.89152793539609         1.6880552189907614       0.09979891689628254
2.7923219826892907        0.3969565304027506       0.29854087548404756      -0.44732484146607854     -0.09976367860667085     -1.6875898002176724      -1.891008931510956       3.4788350531219576       -3.4788350531219576      1.891008931510956        1.6875898002176724       0.0997636786066709
2.846952072783763         0.38161225933825604      0.28658250612575875      -0.42950503079248575     -0.09504808611615512     -1.6214971234691788      -1.814543122870707       3.340992160223731        -3.340992160223731       1.814543122870707        1.6214971234691788       0.09504808611615514
2.853525985025886         0.3798692942907026       0.28518797849806093      -0.4275819113926996      -0.09502512149521088     -1.6145022986580209      -1.8061529924835757      3.325630169646386        -3.325630169646386       1.8061529924835757       1.6145022986580209       0.0950251214952109
2.8610639753083644        0.3778707197574179       0.2835889404642284       -0.4253767624929707      -0.09499878906436245     -1.6064816680940337      -1.796532431849732       3.3080153108794033       -3.3080153108794033      1.796532431849732        1.6064816680940337       0.09499878906436246
2.87122006776451          0.37533961996706844      0.2816048488927927       -0.42237851351793965     -0.09402026745924422     -1.5953787473275176      -1.7836493608159993      3.285007840684273        -3.285007840684273       1.7836493608159993       1.5953787473275176       0.09402026745924424
2.8932230741904963        0.3698560341103673       0.27730634730032006      -0.4158828566746039      -0.09190031657672161     -1.571324453018191       -1.755738400378641       3.23516253682011         -3.23516253682011        1.755738400378641        1.571324453018191        0.09190031657672164
2.90897423725574          0.36579429733541646      0.27432368907774196      -0.41151322118593225     -0.09149322283967073     -1.5546704121813366      -1.7374353573061212      3.200612546647787        -3.200612546647787       1.7374353573061212       1.5546704121813366       0.09149322283967076