% Model:              Sphere_potential.mph
% Version:            COMSOL 6.2.0.278
% Date:               Oct 11 2024, 12:27
% Dimension:          1
% Nodes:              703
% Expressions:        11
% Description:        Line graph
% Arc length (m)          Magnetic scalar potential Magnetic scalar potential Magnetic scalar potential Magnetic scalar potential Magnetic scalar potential Magnetic scalar potential Magnetic scalar potential Magnetic scalar potential Magnetic scalar potential Magnetic scalar potential Magnetic scalar potential
0                         8.645312016605528E-6     2.2163235898259867E-5    2.097618354158495E-5     1.6768506589416414E-4    1.3310381782823631E-4    3.470565050531921E-5     -1.2440243890750324E-7   1.2440243890056435E-7    -3.4705650505340024E-5   -1.3310381782823631E-4   -1.6768506589414506E-4
0.01735799338024695       -0.003431036029998119    0.0026019100321503907    -0.0038487024586491684   -0.014451151798141996    -7.270076781489936E-4    -0.03006261199104366     0.016338467871051157     -0.016338467871051164    0.030062611991043646     7.270076781489936E-4     0.014451151798142015
0.1184905625023197        -0.023471589768271905    0.017632243592078135     -0.026394540412028503    -0.09962461040842402     -0.005738251335335683    -0.20541807196089223     0.11153171288780456      -0.11153171288780456     0.20541807196089223      0.005738251335335683     0.09962461040842405
0.1577533002899642        -0.031251942848051065    0.02346747512821307      -0.03514752080068824     -0.1326915435142166      -0.007683772122011559    -0.2734963942834945      0.1484886228912901       -0.1484886228912901      0.2734963942834945       0.007683772122011559     0.13269154351421664
0.22850792962615712       -0.045272768426793945    0.03398303435037245      -0.050921099462884215    -0.1922808316540084      -0.011189757946831663    -0.39617903775624264     0.21508796404906666      -0.21508796404906666     0.39617903775624264      0.011189757946831663     0.19228083165400842
0.3089251993297495        -0.06120835582066125     0.04593465435777919      -0.06884880442422471     -0.26000796626488465     -0.015174542982238654    -0.5356158924115594      0.29078246912891403      -0.29078246912891403     0.5356158924115595       0.015174542982238654     0.26000796626488465
0.3464310683155819        -0.06864056614229408     0.051508779115411615     -0.07721012004761427     -0.2915952751288112      -0.017033010559633736    -0.6006479498212806      0.32608568525210374      -0.32608568525210374     0.6006479498212806       0.017033010559633736     0.2915952751288112
0.40821434410437907       -0.08088361941190354     0.0606910107969489       -0.09098368420042109     -0.3436289432346457      -0.020094465587030305    -0.707775008016339       0.3842405303687242       -0.3842405303687242      0.707775008016339        0.020094465587030305     0.34362894323464577
0.4618075792311136        -0.09150372349995403     0.06865603917066783      -0.10293141295155048     -0.3887649812941075      -0.02275008729429006     -0.8007012163181144      0.43468632231829757      -0.43468632231829757     0.8007012163181144       0.02275008729429006      0.3887649812941076
0.4994332000258346        -0.09895966468866055     0.0742479601752508       -0.11131942517520385     -0.42045314955238516     -0.024614490797741556    -0.8659409106038898      0.4701022518492469       -0.4701022518492469      0.8659409106038898       0.024614490797741556     0.4204531495523852
0.559561825171882         -0.11087482960580675     0.08318427939545095      -0.12472411070423683     -0.47109326384220895     -0.02759394541898054     -0.9701989402149144      0.5266996217916867       -0.5266996217916867      0.9701989402149144       0.02759394541898054      0.47109326384220895
0.5983778382241327        -0.11856666103552024     0.0889531161503205       -0.1333775006050905      -0.5037839760404419      -0.029517331898359533    -1.0375026729423649      0.5632360288002831       -0.5632360288002831      1.0375026729423649       0.029517331898359533     0.503783976040442
0.6228898535229268        -0.1234239940353411      0.09259609141229255      -0.1388420506938105      -0.5244279166090475      -0.030731940467681698    -1.080004465082803       0.5863084889414376       -0.5863084889414376      1.080004465082803        0.030731940467681698     0.5244279166090476
0.6967563377694042        -0.1380614721786822      0.10357412749508627      -0.155309363140762       -0.5866380144351548      -0.034392125720424584    -1.2080827794056723      0.6558368906909426       -0.6558368906909426      1.2080827794056723       0.034392125720424584     0.5866380144351551
0.7084257956770456        -0.14037390706454705     0.1053084422020007       -0.15791087601107087     -0.5964659915673769      -0.03497036330918725     -1.228316644779381       0.6668210165211919       -0.6668210165211919      1.228316644779381        0.03497036330918725      0.5964659915673771
0.7430831232053214        -0.14724164800757586     0.11045921432913916      -0.16563715461240633     -0.6256542714773611      -0.03668767944705617     -1.2884095574521957      0.6994429654218914       -0.6994429654218914      1.2884095574521957       0.03668767944705617      0.6256542714773613
0.75530742349067          -0.14966403134324163     0.11227598936914793      -0.16836236068606686     -0.6359495373233085      -0.03729341195034046     -1.3096054735381957      0.7109493481652283       -0.7109493481652283      1.3096054735381957       0.03729341195034046      0.6359495373233087
0.7553216558483096        -0.1496668516463428      0.11227810458196716      -0.16836553355583805     -0.6359615237701379      -0.03729411718476516     -1.3096301512619406      0.7109627446765683       -0.7109627446765683      1.3096301512619406       0.03729411718476516      0.635961523770138
0.7598624680043649        -0.15056666508063782     0.11295296002936442      -0.16937783285239066     -0.6397857814827465      -0.03751912116019376     -1.3175035416589327      0.7152368813363806       -0.7152368813363806      1.3175035416589327       0.03751912116019376      0.6397857814827466
0.7776310582885428        -0.15408771286592116     0.11559372735280142      -0.1733390470833156      -0.6547504320067018      -0.03839958054301597     -1.3483127961235102      0.7319619446598247       -0.7319619446598247      1.3483127961235102       0.03839958054301597      0.6547504320067019
0.7776688331798685        -0.15409519838926966     0.11559934145594997      -0.1733474683724949      -0.6547822459006704      -0.03840145234359053     -1.3483782946363703      0.7319975010792906       -0.7319975010792906      1.3483782946363703       0.03840145234359053      0.6547822459006706
0.7950631223816975        -0.15754207443297163     0.11818448009507981      -0.1772252388175842      -0.6694316638510419      -0.039263366119154215    -1.3785385444215208      0.7483702466896333       -0.7483702466896333      1.3785385444215208       0.039263366119154215     0.669431663851042
0.8065017558250007        -0.1598087691209453      0.11988448955783311      -0.1797752937747713      -0.6790652446674779      -0.03983016818369548     -1.398372182014476       0.7591371055306942       -0.7591371055306942      1.398372182014476        0.03983016818369548      0.679065244667478
0.8834565021228713        -0.17505822361562215     0.13132150351510052      -0.19693108591544903     -0.7438762803477399      -0.04364338588525043     -1.5318053014383424      0.8315724069758532       -0.8315724069758533      1.5318053014383424       0.04364338588525043      0.7438762803477399
0.9085117052751643        -0.18002319560272215     0.13504520647487775      -0.20251672843790722     -0.7649776855324409      -0.04488490312155148     -1.5752489243817067      0.8551561419708177       -0.8551561419708177      1.5752489243817067       0.04488490312155148      0.7649776855324408
0.9243448467727735        -0.18316071150956387     0.1373983271351616       -0.20604646578257835     -0.7783123047439573      -0.045669458705701035    -1.602702267554926       0.8700594215166702       -0.8700594215166702      1.602702267554926        0.045669458705701035     0.7783123047439573
0.94415816299111          -0.18708694401444617     0.14034298115402088      -0.2104635173315839      -0.7949990138931662      -0.04665123783538065     -1.6370569008172908      0.8887091247595054       -0.8887091247595054      1.6370569008172908       0.04665123783538065      0.7949990138931662
1.018844099197528         -0.20188680468840275     0.15144279773369462      -0.22711350811921188     -0.8578992486525701      -0.05035202989895828     -1.7665560350547367      0.9590088163011253       -0.9590088163011253      1.7665560350547367       0.05035202989895828      0.8578992486525698
1.0373127725836084        -0.20554657880771682     0.1541876100043465       -0.23123079105076405     -0.8734534918054508      -0.051267176574582934    -1.798579151831529       0.9763928366006616       -0.9763928366006616      1.798579151831529        0.051267176574582934     0.8734534918054506
1.0789836169193248        -0.21380412251114075     0.16038072644915338      -0.2405206113069458      -0.9085485109026049      -0.05333202085804128     -1.8708328695975247      1.0156163795529616       -1.0156163795529616      1.8708328695975247       0.05333202085804128      0.9085485109026048
1.0896133190131085        -0.21591051799526015     0.16196051126957506      -0.24289032784618778     -0.9175008135665464      -0.05385874158550528     -1.8892638811839966      1.0256218092029556       -1.0256218092029556      1.8892638811839966       0.05385874158550528      0.9175008135665463
1.1133120968153953        -0.22060669646817366     0.16548261810864182      -0.2481735744374111      -0.9374598363600667      -0.0550330504873713      -1.9303555450119172      1.0479287591392223       -1.0479287591392223      1.930355545011917        0.0550330504873713       0.9374598363600666
1.1898314560591836        -0.23576986878707534     0.17685490893623895      -0.26523228907118324     -1.0019041670501678      -0.05882469190186534     -2.063033620667601       1.1199541455192992       -1.1199541455192992      2.0630336206676008       0.05882469190186534      1.0019041670501676
1.2270266939363776        -0.24314052235805075     0.182382854446673        -0.2735243336678139      -1.0332298160473394      -0.06066772661513517     -2.1275269427273766      1.154964853295173        -1.154964853295173       2.127526942727376        0.06066772661513517      1.0332298160473392
1.2992192716858089        -0.25744629369291616     0.19311209717066866      -0.28961845797684754     -1.0940301277812179      -0.06424495300955167     -2.252702710805229       1.2229175360335638       -1.2229175360335638      2.2527027108052287       0.06424495300955167      1.0940301277812177
1.4227494863729055        -0.2819251882835581      0.21147110435084843      -0.3171574393452662      -1.198066820895637       -0.07036606776140275     -2.4668934470007273      1.3391926938664938       -1.3391926938664938      2.466893447000727        0.07036606776140275      1.1980668208956367
1.4235945591302923        -0.2820926488203586      0.21159669872544867      -0.31734583411278455     -1.198778537915511       -0.07040794263407477     -2.468358730268202       1.339988134986767        -1.339988134986767       2.4683587302682017       0.07040794263407477      1.1987785379155105
1.4241247250236753        -0.28219770718442294     0.21167549180531678      -0.317464025647165       -1.1992250415415568      -0.07043421280386329     -2.469277992373457       1.3404871636357643       -1.3404871636357643      2.4692779923734567       0.07043421280386329      1.1992250415415564
1.4881420533483207        -0.29488345348029965     0.22118971862894557      -0.3317355894655143      -1.2531401089358205      -0.07360629501462092     -2.5802784207094938      1.4007446067882945       -1.4007446067882945      2.5802784207094938       0.07360629501462092      1.2531401089358205
1.5285027773223376        -0.3028813637626592      0.22718810487249724      -0.34073331140669527     -1.2871316585346084      -0.07560620348397047     -2.6502602877695915      1.438734832718954        -1.438734832718954       2.650260287769592        0.07560620348397047      1.2871316585346084
1.5744993575384305        -0.31199609080694457     0.2340240882059284       -0.35098747012183473     -1.3258697974834435      -0.07788543425566385     -2.7300143267190142      1.4820299634912348       -1.4820299634912348      2.7300143267190147       0.07788543425566385      1.3258697974834435
1.6380636791021042        -0.3245920309585165      0.24347095916818956      -0.3651579849568132      -1.3794031242397173      -0.08103500040564997     -2.840228879248855       1.5418607554147874       -1.5418607554147874      2.840228879248855        0.08103500040564997      1.3794031242397173
1.6551085902463796        -0.3279696483549248      0.246004148750185        -0.3689578237198258      -1.3937581453385977      -0.08187955191889759     -2.869783037839708       1.5579044444200079       -1.5579044444200079      2.869783037839708        0.08187955191889759      1.3937581453385977
1.6724288353080636        -0.3314018258849346      0.24857825805333617      -0.3728190429431577      -1.4083450493824918      -0.08273774584275226     -2.899814597702509       1.5742072941627696       -1.5742072941627696      2.899814597702509        0.08273774584275226      1.4083450493824918
1.7002117185734509        -0.3369072971215378      0.2527073145406229       -0.37901276190317995     -1.4317436982339267      -0.08411450974777472     -2.9479875854776645      1.6003583969915125       -1.6003583969915125      2.9479875854776645       0.08411450974777472      1.4317436982339267
1.7677114882685294        -0.35028315066206656     0.2627390832486076       -0.3940607301303566      -1.4885919720997367      -0.0874593694514696      -3.065026471591383       1.6638938689431158       -1.6638938689431158      3.065026471591383        0.0874593694514696       1.4885919720997367
1.7745914611864417        -0.3516464829734108      0.2637615701650581       -0.3955944802823458      -1.4943861765810307      -0.08780024468738655     -3.0769555975713794      1.6703696656777356       -1.6703696656777356      3.0769555975713794       0.08780024468738655      1.4943861765810307
1.819148956554926         -0.3604759345011505      0.27038358997861817      -0.4055276087852624      -1.5319115342074967      -0.09000779620289345     -3.1542130740792063      1.7123093360746027       -1.7123093360746027      3.1542130740792063       0.09000779620289345      1.5319115342074967
1.82425044994753          -0.36148683936141207     0.27114176074304724      -0.4066648762417577      -1.5362079014607137      -0.09026054401506414     -3.163058465918997       1.717111108473348        -1.717111108473348       3.163058465918997        0.09026054401506414      1.5362079014607133
1.8851242761160398        -0.3735496602357461      0.28018880964785786      -0.4202355823209078      -1.58747522081155        -0.09327657986856447     -3.2686080786986977      1.774409437755712        -1.774409437755712       3.2686080786986977       0.09327657986856447      1.5874752208115497
1.8961593472415137        -0.37573635456069343     0.28182883771570866      -0.4226956120172355      -1.596768644043203       -0.09382322580042826     -3.287741670337456       1.7847962520946805       -1.7847962520946805      3.287741670337456        0.09382322580042826      1.5967686440432027
1.9578562633029803        -0.38796214350217684     0.29099819496130774      -0.4364495016915757      -1.648727708886734       -0.09687913487802556     -3.394716878654581       1.8428683046458718       -1.8428683046458718      3.394716878654581        0.09687913487802556      1.648727708886734
2.027472919839467         -0.40175708169712093     0.30134457901628875      -0.4519686455338522      -1.7073550084807845      -0.10032668169230002     -3.5154224825785176      1.9083941557900328       -1.9083941557900328      3.5154224825785176       0.10032668169230002      1.7073550084807845
2.0864460944774263        -0.4134430927198098      0.3101091324918833       -0.4651153288365048      -1.7570201033099884      -0.10324773243074903     -3.617674898261289       1.9639025273820492       -1.9639025273820492      3.617674898261289        0.10324773243074903      1.7570201033099884
2.0967093922309807        -0.41547686205478335     0.31163446464449984      -0.4674033129027724      -1.7656635817871564      -0.1037561335680228      -3.635470369654156       1.9735629214350217       -1.9735629214350217      3.635470369654156        0.1037561335680228       1.7656635817871564
2.10088877914099          -0.41630511928082314     0.3122555857526642       -0.4683352915214018      -1.7691846473892605      -0.10396417026596745     -3.642718161905246       1.9774976847819525       -1.9774976847819525      3.642718161905246        0.10396417026596745      1.7691846473892605
2.1150513702224636        -0.41911192332199887     0.31436026419764973      -0.47149368635908473     -1.781117799487387       -0.10467010619939092     -3.667279384673286       1.9908316913852895       -1.9908316913852895      3.667279384673286        0.10467010619939092      1.781117799487387
2.144711909579219         -0.424990178314399       0.31876806623695814      -0.47810827360857566     -1.806109252352226       -0.10614853909462924     -3.718717649773975       2.0187569365163776       -2.0187569365163776      3.718717649773975        0.10614853909462924      1.8061092523522255
2.1786754081827526        -0.43172042321047355     0.32381546133574696      -0.4856807724437155      -1.8347175521885681      -0.10783585934667325     -3.777610320203049       2.0507286273611545       -2.0507286273611545      3.777610320203049        0.10783585934667325      1.834717552188568
2.181718271264617         -0.4323233098117589      0.3242677586496424       -0.486358906640846       -1.8372789702379744      -0.10798573099093813     -3.7828855221358286      2.053592282888792        -2.053592282888792       3.7828855221358286       0.10798573099093813      1.837278970237974
2.215079208370173         -0.43893315765773466     0.3292265957172088       -0.49379374405907583     -1.8653615044001466      -0.10962887376920731     -3.840721078703399       2.08498844807246         -2.08498844807246        3.840721078703399        0.10962887376920731      1.8653615044001464
2.2590019857599386        -0.4476359724451042      0.33575505534017         -0.5035830833595002      -1.9023391123076996      -0.11179522252728198     -3.9168694443487184      2.126325554568302        -2.126325554568302       3.9168694443487184       0.11179522252728198      1.9023391123076991
2.261596404046471         -0.4481502426691013      0.33614061765948383      -0.5041619222913455      -1.9045263215251333      -0.11192535084872768     -3.9213700274820353      2.1287690568056306       -2.1287690568056306      3.9213700274820353       0.11192535084872768      1.9045263215251333
2.284662291011938         -0.4527224039578185      0.33956849084462215      -0.509308136933165       -1.9239718831144312      -0.11308226728315646     -3.961382828182163       2.1504932123508893       -2.1504932123508893      3.961382828182163        0.11308226728315646      1.923971883114431
2.32706447873999          -0.4611261794523716      0.3458712334057982       -0.518764248140105       -1.959695651247769       -0.11519093343828236     -4.034923051682558       2.1904183338730716       -2.1904183338730716      4.034923051682558        0.11519093343828236      1.9596956512477688
2.3292696375993565        -0.46156317310614337     0.34619902138754366      -0.519255910857581       -1.9615529254799804      -0.1153002330554065      -4.038747053805241       2.192494361380668        -2.192494361380668       4.038747053805241        0.1153002330554065       1.96155292547998
2.37055389393142          -0.46974250559930136     0.352336829666945        -0.5284598721874886      -1.9963140109477229      -0.1173439885505172      -4.110334988949391       2.231364966552187        -2.231364966552187       4.110334988949391        0.1173439885505172       1.9963140109477224
2.391119560457874         -0.4738167797506419      0.3553934936208623       -0.5330444207956385      -2.013630761821252       -0.11836364281868397     -4.145991723546424       2.2507246045438576       -2.2507246045438576      4.145991723546424        0.11836364281868397      2.013630761821252
2.3931722710764296        -0.4742235822120985      0.3556985426296345       -0.5335022340242158      -2.0153604726321577      -0.1184661437837636      -4.149551728409963       2.25265739956157         -2.25265739956157        4.149551728409963        0.1184661437837636       2.0153604726321577
2.3947855259435684        -0.4745430167809672      0.355938541547017        -0.5338619852226341      -2.0167183498114207      -0.11854628268755178     -4.1523495990935215      2.2541775319696535       -2.2541775319696535      4.1523495990935215       0.11854628268755178      2.0167183498114207
2.4344716703158804        -0.48240255386397385     0.36184221495345087      -0.5427198815443516      -2.050157989045002       -0.12054777358910612     -4.221211278765704       2.2916010633098116       -2.2916010633098116      4.221211278765704        0.12054777358910612      2.0501579890450015
2.448933850909398         -0.4852679010588513      0.36399290542447105      -0.5459478328575955      -2.0623484172746727      -0.12127681303926659     -4.246305849821496       2.305234245586093        -2.305234245586093       4.246305849821496        0.12127681303926659      2.0623484172746718
2.459180143778699         -0.48730089617108213     0.3655178302107476       -0.548232396275974       -2.0709778868138176      -0.12177430212948857     -4.264084868078301       2.3148812833939747       -2.3148812833939747      4.264084868078301        0.12177430212948857      2.070977886813817
2.484429565354989         -0.49230238601687765     0.3692759870993455       -0.5538643152883818      -2.092234071889246       -0.12302452782173486     -4.3078899944853175      2.338680450417809        -2.338680450417809       4.3078899944853175       0.12302452782173486      2.0922340718892456
2.4994777119601026        -0.4952820031363847      0.37151443025061576      -0.5572211447714184      -2.104905294606595       -0.1237772820610562      -4.333991876110288       2.3528638635647514       -2.3528638635647514      4.333991876110288        0.1237772820610562       2.1049052946065947
2.5196397811937965        -0.4877651432757923      0.36565459413979584      -0.5485420695232479      -2.0727347822251887      -0.1216742091220192      -4.266662347063962       2.3156017739607946       -2.3156017739607946      4.266662347063962        0.1216742091220192       2.0727347822251883
2.523228018850058         -0.48639704236283443     0.36462602828865776      -0.5469715464666822      -2.0668021857264245      -0.12121401627508627     -4.254558355458369       2.308970186007033        -2.308970186007033       4.254558355458369        0.12121401627508627      2.066802185726424
2.5235070291413564        -0.4862886737268153      0.3645481144489793       -0.5468540670344522      -2.066349272244501       -0.12119457733723982     -4.253637958938374       2.308483264031116        -2.308483264031116       4.253637958938374        0.12119457733723982      2.066349272244501
2.5450755729019416        -0.4779113710209337      0.358525081919082        -0.5377724655521546      -2.0313373584932397      -0.11969187440950443     -4.18248785000773        2.270842365923997        -2.270842365923997       4.18248785000773         0.11969187440950443      2.0313373584932397
2.5451776474168355        -0.47787161961193636     0.358498544442143        -0.5377280236566133      -2.031159700523897       -0.11967322207615072     -4.182150967176754       2.2706644887290093       -2.2706644887290093      4.182150967176754        0.11967322207615072      2.031159700523897
2.546509257571353         -0.4773530437467151      0.3581523505483528       -0.5371482581837975      -2.028842068583562       -0.1194298935967011      -4.177756171873678       2.268343996886818        -2.268343996886818       4.177756171873678        0.1194298935967011       2.028842068583562
2.5491611221169173        -0.47640833265698557     0.35745263423494855      -0.5360798523443828      -2.0247781719866564      -0.11914484135871382     -4.169493977396347       2.2638606467684053       -2.2638606467684053      4.169493977396347        0.11914484135871382      2.0247781719866564
2.587771497278265         -0.4622823671260177      0.3470721188741246       -0.5201849259467811      -1.9640880814167865      -0.11495861291271493     -4.046520794661533       2.197391326157462        -2.197391326157462       4.046520794661533        0.11495861291271493      1.9640880814167865
2.5958921420035725        -0.4592120621063217      0.34487341749790945      -0.5167386680138283      -1.9507585437742287      -0.11391029534894115     -4.019999048761685       2.1831508003363975       -2.1831508003363975      4.019999048761685        0.11391029534894115      1.9507585437742287
2.6088135850791447        -0.4545029140747974      0.3415610068649363       -0.5118645473519077      -1.9317809969624173      -0.11376934066322696     -3.9811470381520344      2.163135381852845        -2.163135381852845       3.9811470381520344       0.11376934066322696      1.9317809969624173
2.6130377180681084        -0.45313690939225093     0.3403108067864645       -0.5101695687461639      -1.926019673409764       -0.1134720358407596      -3.967884514128551       2.1553368765595478       -2.1553368765595478      3.967884514128551        0.1134720358407596       1.926019673409764
2.6193902423447213        -0.4510826232392078      0.3384306750837311       -0.5076205503394385      -1.917355422584977       -0.11302492962814487     -3.947939473087363       2.1436089801305322       -2.1436089801305322      3.947939473087363        0.11302492962814487      1.917355422584977
2.641997800736625         -0.4429888555458409      0.3330949156468431       -0.49887913059323136     -1.8822094865240775      -0.1102540643407135      -3.880778980405136       2.108823558221773        -2.108823558221773       3.880778980405136        0.1102540643407135       1.8822094865240775
2.662185572044553         -0.4367250612727576      0.32782061670965223      -0.49140582577329583     -1.8556115755097418      -0.10871133041871078     -3.8225352757676543      2.075635030676624        -2.075635030676624       3.8225352757676543       0.10871133041871078      1.8556115755097418
2.673228515928913         -0.4332986935174582      0.32493551432245243      -0.48731784179039495     -1.841062211229139       -0.1078674371593055      -3.790675297163853       2.0574805230940205       -2.0574805230940205      3.790675297163853        0.1078674371593055       1.841062211229139
2.6887507571210367        -0.4282980314453501      0.3212539304405623       -0.4818480079342672      -1.8202263033060828      -0.10703417752468167     -3.747749885949455       2.034557760168055        -2.034557760168055       3.747749885949455        0.10703417752468167      1.8202263033060828
2.6936588073227297        -0.4266750017037036      0.32006933543316135      -0.48007886927686266     -1.813457474215374       -0.10675746740055908     -3.7338734868143413      2.027173479999527        -2.027173479999527       3.7338734868143413       0.10675746740055908      1.813457474215374
2.6939067482184678        -0.4265961444857992      0.32000715439198735      -0.47998973444658743     -1.8131297635819865      -0.10674518563878901     -3.7331726899339093      2.026788111990713        -2.026788111990713       3.7331726899339093       0.10674518563878901      1.8131297635819865
2.696317915621104         -0.42582927642755475     0.31940245826432817      -0.4791229190043028      -1.8099428540793365      -0.10662574836911695     -3.7263576036653046      2.023040497955086        -2.023040497955086       3.7263576036653046       0.10662574836911695      1.8099428540793365
2.7123103815920784        -0.4208744247469705      0.3156236861321857       -0.473375131775462       -1.7883783181992319      -0.10488061921134925     -3.6821204349923455      1.9986227360044642       -1.9986227360044642      3.6821204349923455       0.10488061921134925      1.7883783181992319
2.7208412169026657        -0.4183156264587385      0.31364852531814447      -0.4704612325584495      -1.7775306071968415      -0.10426810136188715     -3.659421759105707       1.9861592532707544       -1.9861592532707544      3.659421759105707        0.10426810136188715      1.7775306071968415
2.7227394773966878        -0.41772652939920063     0.31322898977572033      -0.46980925063875306     -1.7750030920262523      -0.10409697442944933     -3.6543770306805734      1.9834709130837718       -1.9834709130837718      3.6543770306805734       0.10409697442944933      1.7750030920262523
2.7453198139088344        -0.41071905603894926     0.30823849781922985      -0.46205374437765756     -1.7449375961308389      -0.10206137197504157     -3.5943685830462178      1.951492358890421        -1.951492358890421       3.5943685830462178       0.10206137197504157      1.7449375961308389
2.751392247255243         -0.4089113145997408      0.30683914964945536      -0.45997389568075403     -1.737200762974131       -0.10155550457516788     -3.578235660870863       1.9425904024719007       -1.9425904024719007      3.578235660870863        0.10155550457516788      1.737200762974131