% Model:              Cylinder_potential.mph
% Version:            COMSOL 6.2.0.339
% Date:               Apr 30 2024, 08:04
% Dimension:          1
% Nodes:              654
% Expressions:        11
% Description:        Line graph
% Arc length (m)          Magnetic scalar potential Magnetic scalar potential Magnetic scalar potential Magnetic scalar potential Magnetic scalar potential Magnetic scalar potential Magnetic scalar potential Magnetic scalar potential Magnetic scalar potential Magnetic scalar potential Magnetic scalar potential
0                         8.562820914942587E-6     -1.1742417937592544E-5   1.5356620163465727E-6    -1.1958963917484307E-5   -4.621024757724482E-5    5.849554370803843E-5     -2.4244260048269682E-5   2.4244260048269682E-5    -5.849554370803193E-5    4.621024757724482E-5     1.195896391748344E-5
0.00905048498763103       1.7513583267831528E-6    0.002604628527057427     0.001190041758300151     0.012577555331026476     0.012570549897719342     -0.0030502158313181144   0.003057221264625256     -0.003057221264625256    0.003050215831318124     -0.012570549897719342    -0.012577555331026478
0.011620835140103673      1.1446069769193703E-6    0.003348644882348399     0.001525342607095919     0.016149594289382736     0.016145015861475057     -0.003942275004707685    0.0039468534326153725    -0.0039468534326153725   0.003942275004707695     -0.016145015861475057    -0.016149594289382736
0.017836743053099176      1.2920767222168099E-6    0.005133377887343629     0.002339780425776132     0.024761839518579874     0.024756671211691002     -0.0060384278054819406   0.006043596112370804     -0.006043596112370804    0.006038427805481946     -0.024756671211691002    -0.02476183951857988
0.025147858216725973      1.4655297891080375E-6    0.007232570590724219     0.003297717507426773     0.03489151286145799      0.03488565074230156      -0.008503910682887382    0.008509772802043795     -0.008509772802043795    0.008503910682887384     -0.03488565074230156     -0.034891512861457995
0.027829746703925816      1.745158765398795E-6     0.008003245493701077     0.0036508086634590596    0.03861646145247029      0.0386094808174087       -0.009403011509736235    0.009409992144797805     -0.009409992144797805    0.009403011509736235     -0.0386094808174087      -0.0386164614524703
0.029494347771991544      6.611262406136379E-7     0.008482361352068323     0.003868172650602824     0.040921096911097514     0.040918452406135064     -0.009973071201312482    0.009975715706274911     -0.009975715706274911    0.009973071201312482     -0.040918452406135064    -0.04092109691109753
0.031583490820514884      -1.4390036991208412E-6   0.009081450123891381     0.0041433410706858635    0.04381483664701938      0.04382059266181586      -0.010673864096328972    0.01066810808153246      -0.01066810808153246     0.010673864096328974     -0.04382059266181586     -0.04381483664701938
0.034723978431348404      -1.93415415603177E-6     0.00997932116608822      0.004558371327087075     0.048167580498300916     0.048175317114925044     -0.011708346498228465    0.011700609881604308     -0.011700609881604308    0.011708346498228467     -0.048175317114925044    -0.048167580498300916
0.03740697127594934       -2.6269964393893725E-6   0.010747636022209376     0.004912191355423621     0.051886419495443856     0.05189692748120142      -0.012599396637812461    0.012588888652054873     -0.012588888652054873    0.012599396637812463     -0.05189692748120142     -0.051886419495443856
0.04468356785340765       -4.506067342595951E-6    0.012831397543866786     0.00587179347005873      0.06197235437715011      0.0619903786465205       -0.015016030886050667    0.014998006616680253     -0.014998006616680253    0.01501603088605067      -0.0619903786465205      -0.06197235437715011
0.04743879613333893       -6.113462165334215E-6    0.01362036863896994      0.0062329626866309195    0.06578072973910284      0.06580518358776419      -0.015941482094716842    0.015917028246055474     -0.015917028246055474    0.015941482094716845     -0.06580518358776419     -0.06578072973910284
0.050861441794397326      -5.075576520553602E-6    0.014595804696244958     0.006680372249786319     0.07049875193483904      0.07051905424092128      -0.01707607624263074     0.017055773936548495     -0.017055773936548495    0.017076076242630744     -0.07051905424092128     -0.07049875193483904
0.056598375246237065      -2.80254971104939E-6     0.016229149137250442     0.007422690265833533     0.07837260337566337      0.0783838135745076       -0.019002291447839336    0.018991081248995106     -0.018991081248995106    0.019002291447839343     -0.0783838135745076      -0.07837260337566337
0.059226642389055985      -3.397999481373094E-6    0.016977625497899083     0.007765493736930754     0.08198805544245752      0.08200164744038306      -0.019877697544937026    0.019864105547011502     -0.019864105547011502    0.019877697544937033     -0.08200164744038306     -0.08198805544245752
0.0611848935083096        -1.81976172751119E-6     0.01753131345833632      0.008022463559621721     0.08468015509004082      0.0846874341369509       -0.020507725659977143    0.020500446613067068     -0.020500446613067068    0.02050772565997715      -0.0846874341369509      -0.08468015509004082
0.06911320079182752       -1.5715688900982397E-6   0.01978220172697063      0.009055713601001745     0.09556631644713864      0.09557260272269909      -0.023126893914685143    0.02312060763912472      -0.02312060763912472     0.023126893914685143     -0.09557260272269909     -0.09556631644713864
0.07047007754702389       -1.0597820587259703E-6   0.020167242124902028     0.009231797983618189     0.09742679874506138      0.09743103787329632      -0.023576654004350824    0.023572414876115895     -0.023572414876115895    0.023576654004350828     -0.09743103787329632     -0.09742679874506138
0.07398846156943026       2.672821742500872E-7     0.021165652613455783     0.00968838512465395      0.10225103290333162      0.10224996377463466      -0.02474288277740309     0.02474395190610007      -0.02474395190610007     0.0247428827774031       -0.10224996377463466     -0.10225103290333162
0.07505163265236005       6.372284192502579E-7     0.02146710712559985      0.009824818804726899     0.10370187105254564      0.10369932213886868      -0.025100771701053494    0.025103320614730473     -0.025103320614730473    0.025100771701053504     -0.10369932213886868     -0.10370187105254564
0.07794451221376146       1.6438490357833136E-6    0.022287362313946985     0.010196053699003903     0.10764958943592812      0.10764301403978502      -0.026074584447753804    0.026081159843896917     -0.026081159843896917    0.026074584447753808     -0.10764301403978502     -0.10764958943592812
0.08151468230500981       -6.088502191876476E-7    0.023294655239044164     0.010651438267190491     0.11248850108545606      0.11249093648633285      -0.02727943034880893     0.027276994947932162     -0.027276994947932162    0.027279430348808933     -0.11249093648633285     -0.11248850108545606
0.08853093196091522       2.7180191492931233E-6    0.025261749171049827     0.01156186803229003      0.12203815568060819      0.12202728360401102      -0.029532339345690807    0.029543211422287958     -0.029543211422287958    0.029532339345690807     -0.12202728360401102     -0.12203815568060819
0.10114026098321681       1.6444429481283918E-6    0.028784209993778117     0.013177279848774407     0.13906503826232822      0.13905846049053572      -0.03364022170034048     0.033646799472132984     -0.033646799472132984    0.03364022170034048      -0.13905846049053572     -0.13906503826232822
0.10199177861629938       2.1245124501565162E-6    0.029023267529195217     0.013286050596645692     0.14021825399906873      0.14020975594926807      -0.03392135117610258     0.03392984922590319      -0.03392984922590319     0.03392135117610258      -0.14020975594926807     -0.14021825399906873
0.103065359248246         1.6788025574131697E-6    0.029323163195303772     0.013422355641213102     0.14166226975587853      0.1416555545456489       -0.034276709415944094    0.03428342462617373      -0.03428342462617373     0.034276709415944094     -0.1416555545456489      -0.14166226975587853
0.10307340235240019       1.6754633661282393E-6    0.02932540996839758      0.013423376818046562     0.14167308810411122      0.14166638625064673      -0.034279371706274264    0.03428607355973876      -0.03428607355973876     0.034279371706274264     -0.14166638625064673     -0.14167308810411122
0.10308561324892618       1.663564216669814E-6     0.029328808657730486     0.013424907030028407     0.1416893812217384       0.14168272696487175      -0.03428347072464451     0.03429012498151117      -0.03429012498151117     0.03428347072464451      -0.14168272696487175     -0.1416893812217384
0.10322306097026768       1.5296255680634493E-6    0.029367064825355886     0.01344213133044125      0.14187277904896875      0.14186666054669653      -0.034329609903166546    0.03433572840543878      -0.03433572840543878     0.034329609903166546     -0.14186666054669653     -0.14187277904896875
0.10414906644541894       -2.7023729957485613E-7   0.02962489116311244      0.013559383620879648     0.14311166749825677      0.14311274844745503      -0.034637679480417904    0.03463659853121959      -0.03463659853121959     0.034637679480417904     -0.14311274844745503     -0.14311166749825677
0.10466373313010183       -2.4591653830849375E-7   0.0297677907563877       0.013625792777220236     0.14380605154496742      0.14380703521112065      -0.03480069299335879     0.034799709327205545     -0.034799709327205545    0.03480069299335879      -0.14380703521112065     -0.14380605154496742
0.10568657111790201       -4.899052721496434E-7    0.03005125875706777      0.01375510189955948      0.14517320405889692      0.14517516367998554      -0.035134348483509714    0.0351323888624211       -0.0351323888624211      0.035134348483509714     -0.14517516367998554     -0.14517320405889692
0.12017064171036576       -3.94494906879537E-6     0.034065355399474466     0.015586205631089103     0.16453299882464223      0.1645487786209174       -0.03985913357220459     0.039843353775929416     -0.039843353775929416    0.0398591335722046       -0.1645487786209174      -0.16453299882464223
0.12727533449445344       -4.9067156421161474E-6   0.03602405524246728      0.016444948235322908     0.17384214523740926      0.17386177209997772      -0.04230218621739444     0.042282559354825985     -0.042282559354825985    0.042302186217394455     -0.17386177209997772     -0.17384214523740923
0.13572423637728998       8.7125983310605E-6       0.03832278173682256      0.01752518310081593      0.18508650281039354      0.18505165241706928      -0.04485018761054181     0.04488503800386607      -0.04488503800386607     0.044850187610541825     -0.18505165241706928     -0.18508650281039352
0.136763490095752         1.0449571228448597E-5    0.03860739461963978      0.017653584163813678     0.18645741965663098      0.18641562137171713      -0.04518694806120774     0.04522874634612155      -0.04522874634612155     0.045186948061207745     -0.18641562137171713     -0.18645741965663093
0.137520400435276         1.1714645119596865E-5    0.03881468416784066      0.017747101358375837     0.18745588722726456      0.1874090286467861       -0.04543221777977943     0.045479076360257845     -0.045479076360257845    0.045432217779779446     -0.1874090286467861      -0.18745588722726453
0.14011359135425802       1.1383013364470022E-5    0.0395170408435814       0.018058872786030696     0.19080937970159595      0.19076384764813803      -0.0462928653598925      0.0463383974133504       -0.0463383974133504      0.04629286535989251      -0.19076384764813803     -0.1908093797015959
0.1419417743210559        1.1149215103982272E-5    0.04001219779550767      0.018278669643022855     0.19317357038882244      0.19312897352840647      -0.04689961638422363     0.046944213244639585     -0.046944213244639585    0.046899616384223644     -0.19312897352840647     -0.19317357038882238
0.14744693477627524       5.234533598024067E-6     0.04149636460626661      0.018943947466132212     0.20027535275052477      0.20025441461613264      -0.04870283488707493     0.04872377302146704      -0.04872377302146704     0.04870283488707494      -0.20025441461613264     -0.20027535275052474
0.15144572213065347       8.590910412158853E-6     0.04256205378681241      0.019449430064559764     0.20550106343950064      0.20546669979785195      -0.04987125928137387     0.04990562292302252      -0.04990562292302252     0.04987125928137389      -0.20546669979785195     -0.2055010634395006
0.15453580726633184       5.624729923797808E-6     0.04337625053549887      0.019829772269092317     0.20945909014271352      0.2094365912230183       -0.05079841307027977     0.050820911989974994     -0.050820911989974994    0.05079841307027979      -0.2094365912230183      -0.2094590901427135
0.15530665990826986       4.884786535339764E-6     0.04357936005747795      0.019924652435926317     0.21044645948920984      0.21042692034306845      -0.0510297008556579      0.051049240001799286     -0.051049240001799286    0.05102970085565792      -0.21042692034306845     -0.21044645948920981
0.16329438748316905       -1.380190641426748E-6    0.04570341859110183      0.02087148045773801      0.22059341722297465      0.22059893798554037      -0.05362709432363629     0.05362157356107061      -0.05362157356107061     0.05362709432363631      -0.22059893798554037     -0.22059341722297462
0.16532306178332212       -1.2666773671919434E-6   0.046246860110880764     0.021108073152351577     0.22317033958731422      0.22317540629678295      -0.054310821077970355    0.05430575436850162      -0.05430575436850162     0.054310821077970375     -0.22317540629678295     -0.2231703395873142
0.17065756634954038       3.1838377742480595E-6    0.04763681091866         0.02175268125366868      0.2299275254462032       0.22991479009510618      -0.05589334006575676     0.05590607541685379      -0.05590607541685379     0.055893340065756775     -0.22991479009510618     -0.22992752544620315
0.17309509201461637       -3.8140993350118833E-7   0.04828254080997421      0.022032946225886883     0.23297864451360317      0.23298017015333716      -0.056716600346242096    0.056715074706508134     -0.056715074706508134    0.05671660034624212      -0.23298017015333716     -0.23297864451360314
0.1767285936786144        1.3290050143340546E-6    0.049243653712290864     0.022447159566054073     0.23752225741111754      0.2375169413910602       -0.05793966486262761     0.057944980882684974     -0.057944980882684974    0.05793966486262761      -0.2375169413910602      -0.23752225741111752
0.17892663289988145       2.3636981251788864E-6    0.049825066368927216     0.02269773249868284      0.24027085649776336      0.24026140170526264      -0.05867954171579993     0.05868899650830067      -0.05868899650830067     0.05867954171579993      -0.24026140170526264     -0.24027085649776336
0.1845976170108819        7.867191283834852E-7     0.051299964677646165     0.02334577321522175      0.2472845603320823       0.24728141345556875      -0.06051522773379474     0.060518374610308304     -0.060518374610308304    0.06051522773379474      -0.24728141345556875     -0.2472845603320823
0.18634769820929828       3.000590992637659E-7     0.05175512232738428      0.023545760351779424     0.24944900850746907      0.24944780827107196      -0.061081725456836614    0.0610829256932337       -0.0610829256932337      0.061081725456836614     -0.24944780827107196     -0.24944900850746907
0.18663672773598128       -3.4657900169015286E-8   0.05183059152380182      0.023578312207242404     0.24980495408457473      0.24980509271617535      -0.06117859505823618     0.061178456426635545     -0.061178456426635545    0.06117859505823618      -0.24980509271617535     -0.24980495408457473
0.1869906479784437        -1.2752779683594884E-6   0.051921343638818146     0.023620609492067297     0.2502439183287869       0.2502490194406603       -0.061284143504121966    0.06127904239224856      -0.06127904239224856     0.061284143504121966     -0.2502490194406603      -0.2502439183287869
0.1909964578830038        -1.6608740959981726E-6   0.05294695268753612      0.024088803824498753     0.2551927516124114       0.25519939510879536      -0.06248896451280529     0.06248232101642133      -0.06248232101642133     0.06248896451280529      -0.25519939510879536     -0.2551927516124114
0.1910805747122265        -1.7312193687988025E-6   0.05296820805014099      0.024098426636960418     0.255294868259527        0.25530179313700224      -0.06251438004131889     0.06250745516384372      -0.06250745516384372     0.06251438004131889      -0.25530179313700224     -0.255294868259527
0.19295913709294407       -3.302224652351358E-6    0.053442899321162946     0.024313330760834723     0.25757541655752303      0.2575886254561324       -0.06308197936945464     0.06306877047084528      -0.06306877047084528     0.06308197936945464      -0.2575886254561324      -0.25757541655752303
0.20460681529477595       -6.216078660009085E-6    0.056433675293913424     0.025583414323154335     0.27162225101703763      0.2716471153316776       -0.0669798007464429      0.0669549364318029       -0.0669549364318029      0.0669798007464429       -0.2716471153316776      -0.27162225101703763
0.20792018399851045       -5.035996267644603E-6    0.05726178778053513      0.02595015421127709      0.27557590819417854      0.27559605217924904      -0.06799481848903233     0.06797467450396177      -0.06797467450396177     0.06799481848903233      -0.27559605217924904     -0.27557590819417854
0.20982122103317086       -5.765734999549352E-6    0.057730562372791894     0.026155854527119896     0.2778035737568562       0.27782663669685437      -0.06857980047989518     0.06855673753989702      -0.06855673753989702     0.06857980047989518      -0.27782663669685437     -0.2778035737568562
0.2152945376600138        -7.866741482727644E-6    0.05908022138693033      0.026748090732055474     0.2842172936060475       0.28424876057197834      -0.07026403471553454     0.07023256774960367      -0.07023256774960367     0.07026403471553454      -0.28424876057197834     -0.2842172936060475
0.21707039275267914       -5.985291822072845E-6    0.059515243799410984     0.026939158552487755     0.2862903950245399       0.2863143361918281       -0.07080106777192607     0.07077712660463781      -0.07077712660463781     0.07080106777192607      -0.2863143361918281      -0.2862903950245399
0.21977620765396438       -9.788959770762E-6       0.060201710838052314     0.02721816883490133      0.2894582299342208       0.28949738577330375      -0.07175203509409314     0.07171287925501013      -0.07171287925501013     0.07175203509409316      -0.28949738577330375     -0.2894582299342208
0.22193304006389666       -7.979143176295512E-6    0.06074654385788821      0.02744121836570356      0.2919885467501264       0.2920204633228315       -0.072490716397203       0.07245879982449785      -0.07245879982449785     0.07249071639720302      -0.2920204633228315      -0.2919885467501264
0.2274579951640436        4.514180411818952E-6     0.06207314383163134      0.028026652015137744     0.29833506791626874      0.2983170111946214       -0.0741037950735194      0.0741218517951667       -0.0741218517951667      0.0741037950735194       -0.2983170111946214      -0.29833506791626874
0.23249963399309545       3.485957070156211E-6     0.06332773634044438      0.02853830151101227      0.3041433869795226       0.3041294431512419       -0.07582303106314373     0.07583697489142438      -0.07583697489142438     0.07582303106314373      -0.3041294431512419      -0.3041433869795226
0.23276185497676333       3.936779090150342E-6     0.06339274613728232      0.028564387097757576     0.30444366036105763      0.304427913244697        -0.07591281646263634     0.07592856357899697      -0.07592856357899697     0.07591281646263634      -0.304427913244697       -0.30444366036105763
0.23369802221760327       5.546279598704314E-6     0.06362484061455129      0.028657516455398855     0.30551568022444675      0.30549349510605195      -0.076233363462861       0.07625554858125584      -0.07625554858125584     0.076233363462861        -0.30549349510605195     -0.30551568022444675
0.239954775506452         -5.011756766761422E-7    0.06514915936169499      0.02926235144716865      0.31249588152240626      0.31249788622511293      -0.07839907464776372     0.07839706994505703      -0.07839706994505703     0.07839907464776373      -0.31249788622511293     -0.31249588152240626
0.2431266536308128        1.2276511156064696E-5    0.06591420487004625      0.02957109335183378      0.316051541039786        0.3160024349951618       -0.07943368818049143     0.07948279422511571      -0.07948279422511571     0.07943368818049143      -0.3160024349951618      -0.316051541039786
0.24327752706446845       1.2884294119674302E-5    0.06595059499546163      0.02958577895747306      0.3162206694045165       0.3161691322280378       -0.07948290056825323     0.07953443774473197      -0.07953443774473197     0.07948290056825325      -0.3161691322280378      -0.3162206694045165
0.24390395767492104       1.2293391072581415E-5    0.06609882373917704      0.029647826890210564     0.31691236556051855      0.31686319199622826      -0.07968057687454363     0.079729750438834        -0.079729750438834       0.07968057687454365      -0.31686319199622826     -0.31691236556051855
0.24451708448356127       9.791844389993461E-6     0.06624377733498038      0.029708068454720127     0.3175831895126016       0.3175440221350416       -0.07987947449728057     0.07991864187484057      -0.07991864187484057     0.07987947449728058      -0.3175440221350416      -0.3175831895126016
0.24819342393988647       -5.207556454072076E-6    0.06711292645075606      0.030069279932339942     0.3216054839687198       0.32162631419453613      -0.08107207473581649     0.08105124451000023      -0.08105124451000023     0.0810720747358165       -0.32162631419453613     -0.3216054839687198
0.25173628272226034       -1.0961886823748719E-5   0.06796093554342378      0.030391910342494277     0.32542852422660096      0.325472371773896        -0.08233708903394173     0.08229324148664675      -0.08229324148664675     0.08233708903394174      -0.325472371773896       -0.32542852422660096
0.2544194703948487        -8.420435008238988E-6    0.06859976891547218      0.030634902136338953     0.32832207442175587      0.32835575616178886      -0.08327653907107718     0.08324285733104425      -0.08324285733104425     0.0832765390710772       -0.32835575616178886     -0.32832207442175587
0.2567805599606189        -6.1840668910166045E-6   0.06916191476327054      0.03084872444734451      0.33086827394540763      0.3308930102129717       -0.08410321463421555     0.08407847836665153      -0.08407847836665153     0.08410321463421555      -0.3308930102129717      -0.33086827394540763
0.2605462460922638        -5.279823397617926E-6    0.07003169059868065      0.03120437383272273      0.3349020074801376       0.3349231267737281       -0.08528813611194619     0.08526701681835576      -0.08526701681835576     0.08528813611194619      -0.3349231267737281      -0.3349020074801376
0.26331308817792604       -7.570945804998946E-6    0.07068083249956414      0.031446000833777674     0.33781135894219305      0.33784164272541306      -0.08627363605519164     0.08624335227197166      -0.08624335227197166     0.08627363605519164      -0.33784164272541306     -0.33781135894219305
0.26536766980745435       -5.065439054494672E-6    0.07116390680942333      0.031620063662171995     0.3399618441988489       0.3399821059550669       -0.08702159665769091     0.08700133490147297      -0.08700133490147297     0.08702159665769091      -0.3399821059550669      -0.3399618441988489
0.2675230742584701        -2.436981598984958E-6    0.07167068663392745      0.0318026681348712       0.34221785847806907      0.3422276064044651       -0.08780626132549545     0.08779651339909952      -0.08779651339909952     0.08780626132549545      -0.3422276064044651      -0.34221785847806907
0.2777332547434108        -8.267497506316275E-6    0.07400033629214106      0.03266584385795985      0.35264784931324983      0.3526809193032751       -0.09135416843959629     0.09132109844957105      -0.09132109844957105     0.09135416843959629      -0.3526809193032751      -0.35264784931324983
0.27801153957483726       -8.594330018169096E-6    0.07406482647882721      0.03268934582731633      0.3529346740857105       0.3529690514057832       -0.09145428478725262     0.09141990746717996      -0.09141990746717996     0.09145428478725262      -0.3529690514057832      -0.3529346740857105
0.2781857577894054        -8.798941158438455E-6    0.07410520009575793      0.03270405906597591      0.35311423866886044      0.3531494344334942       -0.09151696190568688     0.09148176614105315      -0.09148176614105315     0.09151696190568688      -0.3531494344334942      -0.35311423866886044
0.27906074117171836       -8.012116254599731E-6    0.07430823884390603      0.0327687696470362       0.35398377088735355      0.354015819352372        -0.09186566217608237     0.091833613711064        -0.091833613711064       0.09186566217608237      -0.354015819352372       -0.35398377088735355
0.28211123475592187       -2.8901291651962943E-6   0.07501610922455101      0.03300198030177495      0.3570504686224224       0.35706202913908314      -0.0930461867248836      0.09303462620822282      -0.09303462620822282     0.0930461867248836       -0.35706202913908314     -0.3570504686224224
0.28339855932849517       -3.3543024164241938E-6   0.07530339026326761      0.033106070229834715     0.3583277431043088       0.3583411603139745       -0.0934925984752968      0.09347918126563108      -0.09347918126563108     0.0934925984752968       -0.3583411603139745      -0.3583277431043088
0.29451157571638575       -2.1549286253397444E-6   0.07778341416399412      0.033927596941500715     0.36905632040073455      0.36906494011523594      -0.09764416458323015     0.0976355448687288       -0.0976355448687288      0.09764416458323015      -0.36906494011523594     -0.36905632040073455
0.29494194612352376       -2.1084808411583813E-6   0.07787945729563484      0.033959411956707534     0.3694718027520524       0.36948023667541696      -0.09780494102175664     0.09779650709839202      -0.09779650709839202     0.09780494102175664      -0.36948023667541696     -0.3694718027520524
0.29669939525337347       1.7256121453835648E-6    0.07827219607339012      0.03407088370771335      0.37110357427531454      0.371096671826733        -0.09852960216502617     0.0985365046136077       -0.0985365046136077      0.09852960216502617      -0.371096671826733       -0.37110357427531454
0.3031550090913713        2.6422029929219163E-6    0.07965744902680678      0.034508804002244715     0.37701284749538516      0.37700227868341346      -0.10093184666545571     0.10094241547742738      -0.10094241547742738     0.10093184666545571      -0.37700227868341346     -0.37701284749538516
0.30438881957233377       2.7494330224506978E-6    0.07992868712486756      0.03459138503388532      0.378157100376189        0.3781461026440991       -0.1014150223730165      0.1014260201051063       -0.1014260201051063      0.1014150223730165       -0.3781461026440991      -0.378157100376189
0.3059859889635389        -2.076213628002778E-6    0.08028279301445247      0.034694270233092434     0.3796213075484713       0.3796296124029832       -0.10207545053824366     0.10206714568373165      -0.10206714568373165     0.10207545053824366      -0.3796296124029832      -0.3796213075484713
0.3087048174874672        -1.0290812425034566E-5   0.08088558016927516      0.03486940958639752      0.38211379722856564      0.38215496047826575      -0.10319968378708551     0.10315852053738536      -0.10315852053738536     0.10319968378708551      -0.38215496047826575     -0.38211379722856564
0.30982881436395265       -8.61628442995897E-6     0.0811282393830207       0.034935995370778516     0.38311146706331634      0.38314593220103615      -0.10365796923480802     0.10362350409708819      -0.10362350409708819     0.10365796923480802      -0.38314593220103615     -0.38311146706331634
0.31139857177383073       -6.277663404126237E-6    0.08146713365116436      0.03502898809220975      0.38450479799552395      0.3845299086491404       -0.10429800391146232     0.10427289325784583      -0.10427289325784583     0.10429800391146231      -0.3845299086491404      -0.38450479799552395
0.3186267208164952        1.9159709934449753E-6    0.08301068574071234      0.035444635473283734     0.39081443105725894      0.3908067671732852       -0.10724968338701531     0.10725734727098908      -0.10725734727098908     0.10724968338701531      -0.3908067671732852      -0.39081443105725894
0.3196512781114952        2.5773212123018056E-6    0.08323817567563878      0.03550068713331253      0.3917224302025912       0.3917121209177419       -0.10770662385124172     0.10771693313609092      -0.10771693313609092     0.10770662385124172      -0.3917121209177419      -0.3917224302025912
0.3212322207601756        -9.652551699749729E-6    0.08356723368322819      0.03559561747472757      0.3930648658451954       0.39310347605199436      -0.10833853625417392     0.1082999260473749       -0.1082999260473749      0.10833853625417392      -0.39310347605199436     -0.3930648658451954
0.32286108490845716       -2.2253136256759692E-5   0.08390626609007401      0.03569342534261205      0.39444799336815684      0.39453700591318375      -0.10898960317228747     0.1089005906272604       -0.1089005906272604      0.10898960317228747      -0.39453700591318375     -0.39444799336815684