% Model:              Cylinder_potential.mph
% Version:            COMSOL 6.2.0.339
% Date:               Apr 30 2024, 08:05
% Dimension:          1
% Nodes:              492
% Expressions:        11
% Description:        Line graph
% Arc length (m)          Magnetic scalar potential Magnetic scalar potential Magnetic scalar potential Magnetic scalar potential Magnetic scalar potential Magnetic scalar potential Magnetic scalar potential Magnetic scalar potential Magnetic scalar potential Magnetic scalar potential Magnetic scalar potential
0                         8.56282091494197E-6      -1.1742417937593249E-5   1.5356620163465185E-6    -1.1958963917486042E-5   -4.6210247577245685E-5   5.849554370803648E-5     -2.4244260048270115E-5   2.4244260048270115E-5    -5.849554370803258E-5    4.6210247577245685E-5    1.1958963917485391E-5
0.007275398310862699      0.002398630031712923     -0.0012896280960584495   5.613200176721751E-4     0.0031736558459392146    -0.006420864280912463    0.010911424422289876     -0.001316904295438198    0.001316904295438198     -0.010911424422289873    0.006420864280912463     -0.0031736558459392154
0.010772553714299157      0.0035497403063877594    -0.001902254541561078    8.266130883307919E-4     0.004699169341415465     -0.009499791884135555    0.016112696590781902     -0.0019137353652308835   0.0019137353652308835    -0.016112696590781895    0.009499791884135555     -0.004699169341415465
0.01273447285771453       0.004195518095343748     -0.002245940598524133    9.754436359893653E-4     0.005554988939072569     -0.011227083442302405    0.019030632530217334     -0.002248560148842366    0.002248560148842366     -0.019030632530217334    0.011227083442302405     -0.005554988939072569
0.013198349433475951      0.004348215260964096     -0.002327287826851193    0.0010105369744415644    0.005756714939140879     -0.011636146104715486    0.01972044190024801      -0.0023275808563916474   0.0023275808563916474    -0.019720441900248006    0.011636146104715486     -0.005756714939140879
0.013460361149745588      0.004434096895605503     -0.0023727143691023595   0.0010298331313189845    0.005869383209179877     -0.011867004373242116    0.020105669423794003     -0.002369281841372011    0.002369281841372011     -0.020105669423794       0.011867004373242118     -0.005869383209179877
0.01740076130753715       0.005715605591504825     -0.0030509263425738857   0.0013219655782862735    0.007566294468433097     -0.015296127897586182    0.025871852523876384     -0.0030094301578571002   0.0030094301578571002    -0.025871852523876377    0.015296127897586182     -0.007566294468433097
0.019212221024839472      0.006304733925439137     -0.0033627103291079675   0.0014562631467075447    0.008346389450384562     -0.016872546251371964    0.028522651425032342     -0.0033037157232758026   0.0033037157232758026    -0.02852265142503233     0.016872546251371967     -0.008346389450384562
0.023760725979691467      0.007805581793017738     -0.0041576272933505675   0.001793596879804824     0.010312669225203082     -0.020909657946867853    0.03525843298530645      -0.004036105813235514    0.004036105813235514     -0.035258432985306426    0.020909657946867857     -0.010312669225203082
0.025785719746258772      0.008476398409812184     -0.004512895536818527    0.0019446297216666171    0.011192629095835266     -0.02271296454341346     0.038270002316746383     -0.004364408677497673    0.004364408677497673     -0.03827000231674636     0.02271296454341346      -0.011192629095835268
0.025848469018106134      0.008497024950586535     -0.004523825405153346    0.0019493406828693285    0.011219936417190357     -0.022768163385155776    0.03836288884811039      -0.004374789045764275    0.004374789045764275     -0.03836288884811037     0.022768163385155776     -0.011219936417190358
0.026941986993968558      0.008856479211210867     -0.004714297854411496    0.002031437583870598     0.011695815194669647     -0.023730101650173807    0.03998160232113858      -0.004555685476295137    0.004555685476295137     -0.03998160232113856     0.023730101650173807     -0.011695815194669648
0.027685034257862333      0.009100072499875222     -0.00484331994472449     0.00208796722329132      0.012022054058742262     -0.02437823594075862     0.04108197372708916      -0.004681683727588297    0.004681683727588297     -0.04108197372708915     0.02437823594075862      -0.012022054058742265
0.028263135955794425      0.009292333082935082     -0.004945231212341281    0.0021319630807025867    0.012276824851656671     -0.024892507480083644    0.04194821212570432      -0.004778879793964023    0.004778879793964023     -0.0419482121257043      0.024892507480083644     -0.012276824851656674
0.030359165820395564      0.00998227776999771      -0.005311393016356364    0.0022861154471894053    0.013174838279683958     -0.026754272800306872    0.045043196377822094     -0.005114085297831286    0.005114085297831286     -0.04504319637782208     0.026754272800306875     -0.013174838279683958
0.031862152399050866      0.01047701194443992      -0.005573954292960887    0.0023966524876250063    0.01381877096049721      -0.028089276817262462    0.04726249671826249      -0.00535444894050284     0.00535444894050284      -0.047262496718262464    0.028089276817262466     -0.01381877096049721
0.038313617220240584      0.012595695433662304     -0.006703328838426528    0.0028743628183205286    0.01657885562532714      -0.03380392610932205     0.056798828655886244     -0.006416046921237086    0.006416046921237086     -0.05679882865588623     0.033803926109322056     -0.01657885562532714
0.04007342267748944       0.013173621667448855     -0.007011395230087       0.0030046707825182022    0.01733174077470952      -0.03536274589508588     0.059400112155231444     -0.0067056254854360895   0.0067056254854360895    -0.05940011215523143     0.03536274589508588      -0.01733174077470952
0.0429159015975103        0.014112740124015973     -0.007508412626876275    0.0032143139892418246    0.01855749832437042      -0.03789346217169345     0.063607974085628        -0.007157013589564164    0.007157013589564164     -0.06360797408562797     0.037893462171693454     -0.01855749832437042
0.04700887770580875       0.01545577825473939      -0.008224383431584223    0.0035142817142725558    0.020295533071816335     -0.041527579947141194    0.0696418336613216       -0.007818720642364097    0.007818720642364097     -0.06964183366132158     0.041527579947141194     -0.020295533071816335
0.05230058864855863       0.017192160140397157     -0.0091500449653227      0.0039021028133985917    0.022542596638420575     -0.046226043923167995    0.0774428664303567       -0.008674225868768135    0.008674225868768135     -0.07744286643035668     0.046226043923168016     -0.02254259663842058
0.05469968839619872       0.017977987712482452     -0.00957031935609688     0.004078585226696539     0.02355935826346041      -0.048352592586469345    0.08098127440004162      -0.009069323550111877    0.009069323550111877     -0.0809812744000416      0.04835259258646936      -0.023559358263460412
0.0557088859257031        0.01830855139377374      -0.009747110620111838    0.004152823747073381     0.023987065915505472     -0.04924713965958941     0.08246972963617642      -0.009235524061081555    0.009235524061081555     -0.08246972963617641     0.04924713965958942      -0.023987065915505475
0.056269302037579925      0.018492575085444583     -0.009845246825966696    0.004193735512286542     0.02422435174213524      -0.049745948599643035    0.08329583269793533      -0.009325532356157074    0.009325532356157074     -0.08329583269793532     0.04974594859964304      -0.024224351742135244
0.056527572456156236      0.01857760238854186      -0.009890728180883627    0.004212637789915695     0.024333571394095598     -0.049976838160071785    0.08367794047939728      -0.00936753092522993     0.00936753092522993      -0.08367794047939728     0.049976838160071785     -0.0243335713940956
0.05667074307404752       0.01862473675100261      -0.009915940490221587    0.0042231161512496646    0.0243941166363391       -0.05010483036767129     0.08388975957766853      -0.009390812573658185    0.009390812573658185     -0.08388975957766853     0.05010483036767129      -0.0243941166363391
0.05780002236579446       0.018997551614877366     -0.01011423317091567     0.004304987523264442     0.024872353810065476     -0.051117852649443934    0.08555775283555941      -0.009567546376050038    0.009567546376050038     -0.08555775283555941     0.051117852649443934     -0.02487235381006548
0.058485138639564616      0.01922336606594453      -0.010234759718681177    0.004353679625572648     0.025157171478136123     -0.051736292785641944    0.08656572979022309      -0.009672265526445045    0.009672265526445045     -0.08656572979022309     0.051736292785641944     -0.025157171478136127
0.07522447419435249       0.02472821361258456      -0.013188697750368756    0.005523573229330511     0.031984626891384885     -0.06692822755895327     0.11111681339359733      -0.012203958943259176    0.012203958943259176     -0.11111681339359733     0.06692822755895327      -0.0319846268913849
0.07680057978950815       0.025248420970161948     -0.013468527400545481    0.005635748504577938     0.032634253756999194     -0.0683594301236485      0.11344541816027201      -0.012451734279624281    0.012451734279624281     -0.11344541816027201     0.0683594301236485       -0.03263425375699921
0.07769286563061426       0.025542235212984814     -0.013625250778685458    0.005697484793277055     0.03299865726302148      -0.06917028358891769     0.11475016193513414      -0.012581221083194942    0.012581221083194942     -0.11475016193513414     0.06917028358891769      -0.03299865726302149
0.07902709497991568       0.025981573783605962     -0.0138595982503172      0.005789798673543495     0.03354354751043431      -0.07038274762398944     0.11670113701233742      -0.012774841877913631    0.012774841877913631     -0.11670113701233742     0.07038274762398944      -0.03354354751043432
0.09095126357784894       0.029902389445400128     -0.015960319932768127    0.006600207114312478     0.038324647549745815     -0.08128491023185462     0.13408656714635447      -0.014477009364753997    0.014477009364753997     -0.13408656714635447     0.08128491023185462      -0.038324647549745815
0.09359375167954773       0.030779389469929995     -0.016428332482296006    0.006780449657664926     0.03939558012363168      -0.0837219777560882      0.13796557501740767      -0.014848017137687698    0.014848017137687698     -0.13796557501740767     0.0837219777560882       -0.039395580123631695
0.09633028844911465       0.03167772018360612      -0.01690868083059474     0.006960802567985479     0.04047260814736994      -0.08623827258705444     0.14192469313093833      -0.015213812396513872    0.015213812396513872     -0.14192469313093833     0.08623827258705444      -0.04047260814736995
0.10062123368033164       0.033086320986917966     -0.017661876796158774    0.007243599594169259     0.042161409962036656     -0.09018387398563507     0.14813267073898922      -0.015787386791317404    0.015787386791317404     -0.14813267073898922     0.09018387398563507      -0.042161409962036656
0.10491580626111112       0.034505319482824495     -0.01841345795727252     0.007524997475368063     0.04387025499530371      -0.09415102293599417     0.15435100273893876      -0.016329724807640774    0.016329724807640774     -0.15435100273893876     0.09415102293599417      -0.04387025499530372
0.1059890896587831        0.034856605825127555     -0.018600783232155232    0.007598459199665454     0.04430469875245125      -0.09512172454805888     0.15590939814538263      -0.016482974844872367    0.016482974844872367     -0.15590939814538263     0.09512172454805888      -0.04430469875245126
0.10685736744835395       0.03514457153368049      -0.018753012795663073    0.007650689017549284     0.0446328607505689       -0.09594542538415293     0.15715093752454734      -0.016572651389825346    0.016572651389825346     -0.15715093752454734     0.09594542538415293      -0.04463286075056891
0.1123791305537051        0.036970144817950294     -0.019728832635891473    0.007999505559060253     0.046751813964467176     -0.10112876530733392     0.16512480977981603      -0.01724423050801481     0.01724423050801481      -0.16512480977981603     0.10112876530733392      -0.04675181396446719
0.11288613242053036       0.037137766833870184     -0.019818431278796206    0.008031533488247252     0.04694637378434076      -0.10160469355113988     0.165856961457118        -0.017305894121637223    0.017305894121637223     -0.165856961457118       0.10160469355113988      -0.046946373784340766
0.11521970512470003       0.03790152603489709      -0.020224557821094516    0.008184352984467848     0.04786679054438203      -0.10373931359520622     0.16921413747094913      -0.01760803333136072     0.01760803333136072      -0.16921413747094913     0.10373931359520622      -0.047866790544382046
0.1170358867294745        0.03850384948840078      -0.020542072091148205    0.008288229340809465     0.04853440006659482      -0.10548099788700821     0.17178683261348404      -0.017771434659880875    0.017771434659880875     -0.17178683261348404     0.10548099788700821      -0.04853440006659483
0.11754519104158653       0.038672325744689845     -0.020630723659760045    0.008319790661816769     0.04873164315736662      -0.10595765982139266     0.1725159851159269       -0.01782668213716749     0.01782668213716749      -0.1725159851159269      0.10595765982139266      -0.04873164315736663
0.12355547790255604       0.040660509636870824     -0.021676898501324857    0.008692244985202314     0.05105930371057635      -0.11158273483690687     0.1811206947185255       -0.018478656171042124    0.018478656171042124     -0.1811206947185255      0.11158273483690687      -0.051059303710576355
0.12504376973887535       0.04115548743875634      -0.021940740250359317    0.008784761575880701     0.051627800429957536     -0.11299414932506774     0.18327224193211347      -0.018650292177088038    0.018650292177088038     -0.18327224193211347     0.11299414932506774      -0.05162780042995754
0.12951727910971844       0.042638539520855265     -0.02273493830060944     0.009050354814284615     0.053273683397020696     -0.1172804746864003      0.18968331320067733      -0.01912915511725618     0.01912915511725618      -0.18968331320067733     0.11728047468640031      -0.0532736833970207
0.13309734487103134       0.04382825082136539      -0.023372516373770157    0.00925711224073002      0.054567401484340444     -0.1207456018011211      0.19480249972696137      -0.019489496441499676    0.019489496441499676     -0.1948024997269614      0.1207456018011211       -0.05456740148434045
0.1355513158509604        0.04463506874461323      -0.02380548685198458     0.009401235562724316     0.05545861918417002      -0.12308165579428286     0.19829154029607748      -0.01975126531762445     0.01975126531762445      -0.1982915402960775      0.12308165579428289      -0.05545861918417003
0.13700812121570094       0.04511403801057832      -0.024062520745455993    0.00948679469540468      0.055987692566407406     -0.12446845947590582     0.20036281703914335      -0.019906664996829977    0.019906664996829977     -0.20036281703914338     0.12446845947590585      -0.05598769256640741
0.14123197182902622       0.046512998076321886     -0.02481310932254735     0.00972346996855703      0.05748054805922988      -0.12857144424605765     0.20635920399451396      -0.020307211689226303    0.020307211689226303     -0.206359203994514       0.12857144424605768      -0.05748054805922988
0.14269892790088592       0.04699995950532185      -0.025072234566878702    0.009802426814444891     0.057992922567787195     -0.1300069154535002      0.2084263299690594       -0.020426491947771866    0.020426491947771866     -0.2084263299690594      0.1300069154535002       -0.057992922567787195
0.14595124181403182       0.048079576994272455     -0.025646728005061764    0.00997747803332268      0.05912888210665037      -0.13318942587043947     0.21300925013702093      -0.020690942159930965    0.020690942159930965     -0.21300925013702093     0.13318942587043947      -0.05912888210665037
0.14843362808637253       0.04890562761559243      -0.026086182407045716    0.010118987415488164     0.06002865767200041      -0.13559385279036937     0.21654575211427468      -0.0209232416519048      0.0209232416519048       -0.21654575211427468     0.13559385279036937      -0.06002865767200042
0.14957492710121226       0.04928737577072208      -0.026286197206171667    0.010177334576161457     0.06042549822757502      -0.13672400485531336     0.21814268146460503      -0.020993178381716514    0.020993178381716514     -0.21814268146460503     0.13672400485531336      -0.060425498227575036
0.14967598438145266       0.04932100091618116      -0.026303835577705003    0.010183099054379656     0.060462891316765965     -0.13682111234795874     0.218285904782996        -0.021001901118271167    0.021001901118271167     -0.218285904782996       0.13682111234795874      -0.06046289131676598
0.15317801499258002       0.050486243919171156     -0.02691507424248252     0.010382860804639467     0.06175870832945263      -0.140186267347232       0.22324915378434773      -0.021304178107662986    0.021304178107662986     -0.22324915378434773     0.14018626734723202      -0.06175870832945263
0.15453789347113187       0.05093932973661023      -0.027155172618446022    0.010457660514433099     0.06224378367561481      -0.14151353527082614     0.22517481938629091      -0.021417500439849864    0.021417500439849864     -0.22517481938629091     0.14151353527082616      -0.06224378367561482
0.1546962004069346        0.05099207461679309      -0.027183123085189543    0.010466368140182845     0.062300252538748935     -0.14166804592842341     0.22539899104988617      -0.02143069258271371     0.02143069258271371      -0.22539899104988617     0.14166804592842344      -0.062300252538748935
0.15862670258308847       0.05229788467001144      -0.02788986618660272     0.010663440185453697     0.06357993152202951      -0.14561160715801624     0.23091912864164577      -0.021727589961599948    0.021727589961599948     -0.23091912864164577     0.14561160715801624      -0.06357993152202951
0.1588075734473389        0.052357771931578756     -0.02792178086886386     0.01067233010116703      0.06363952166123406      -0.14579156606508098     0.2311702068744172       -0.021739119148102073    0.021739119148102073     -0.2311702068744172      0.14579156606508098      -0.06363952166123406
0.16122537353241403       0.05315831781669108      -0.028348401938022343    0.010791166482344773     0.06443609574869422      -0.14819717551807013     0.23452650737682826      -0.02189323611006386     0.02189323611006386      -0.23452650737682826     0.14819717551807013      -0.06443609574869422
0.16153917471384818       0.053263375001133345     -0.028403625112538404    0.010807725650708718     0.06454677726748635      -0.14850672273704704     0.23496852794271675      -0.021915027938183285    0.021915027938183285     -0.23496852794271675     0.14850672273704704      -0.06454677726748635
0.16188899189199543       0.05338015539051025      -0.02846632374959669     0.010824483316582232     0.06465927279855936      -0.14886134876348162     0.23545721529613944      -0.02193659373409839     0.02193659373409839      -0.23545721529613944     0.14886134876348162      -0.06465927279855936
0.1667365074125466        0.05499091958272867      -0.029324704214425953    0.011063933723659915     0.06626346141681916      -0.15370021691409552     0.24221168670337484      -0.022248008372460083    0.022248008372460083     -0.24221168670337484     0.15370021691409552      -0.06626346141681916
0.17286658101437766       0.057027860570670205     -0.03041019541202387     0.011366738039221507     0.06829208706215481      -0.15981935522052593     0.250753259534298        -0.02264181725161717     0.02264181725161717      -0.250753259534298       0.15981935522052593      -0.06829208706215481
0.1759645578374335        0.05806002178530273      -0.030961281225291935    0.011521212638898807     0.06932105045032486      -0.162919036690886       0.2550887378020764       -0.02284865066086551     0.02284865066086551      -0.2550887378020764      0.162919036690886        -0.06932105045032486
0.17666981955237449       0.05829602041870932      -0.031084417420681857    0.0115541926264111       0.06955555908101745      -0.16362852259381977     0.2560620636051085       -0.022877981930271275    0.022877981930271275     -0.2560620636051085      0.16362852259381977      -0.06955555908101745
0.18047751730922393       0.05957094418939993      -0.0317671551066857      0.011724086370830807     0.07073676854206598      -0.1675470082155337      0.26133969918218014      -0.023055922424580415    0.023055922424580415     -0.26133969918218014     0.1675470082155337       -0.07073676854206598
0.18370670496977054       0.06065216658974558      -0.0323461632769292      0.011868167865244925     0.07173851480968328      -0.17087015154929902     0.2658154944712584       -0.02320682811227608     0.02320682811227608      -0.2658154944712584      0.17087015154929902      -0.07173851480968328
0.18377305942737318       0.060674406734725655     -0.032358067745805325    0.011871110325831465     0.07175905153536126      -0.17093857540354138     0.26590745801019317      -0.023209831071290425    0.023209831071290425     -0.26590745801019317     0.17093857540354138      -0.07175905153536126
0.18377881812637809       0.06067632758169655      -0.03235909849944073     0.011871385195124222     0.07176090044556785      -0.17094440988121834     0.2659154914422122       -0.0232101811154259      0.0232101811154259       -0.2659154914422122      0.17094440988121834      -0.07176090044556785
0.1837829919890802        0.06067771979745944      -0.03235984558209782     0.011871584418366839     0.07176224052209283      -0.17094863866774493     0.2659213140146797       -0.023210434824841857    0.023210434824841857     -0.2659213140146797      0.17094863866774493      -0.07176224052209283
0.18491934518892852       0.06105893811867951      -0.03256274724759579     0.011924861871559932     0.07212908198081144      -0.17210667049390663     0.26750556546638615      -0.023269812991667978    0.023269812991667978     -0.26750556546638615     0.17210667049390663      -0.07212908198081144
0.18509808284546797       0.061119134186545604     -0.03259461621033546     0.011932721731379591     0.07218530666760327      -0.1722912300785792      0.267753003929616        -0.023276467183433427    0.023276467183433427     -0.267753003929616       0.1722912300785792       -0.07218530666760327
0.18621736261085375       0.061493951791883106     -0.03279485220259898     0.01198071744047162      0.07252621673785581      -0.17344959042967664     0.26929532995344974      -0.02331952278591712     0.02331952278591712      -0.26929532995344974     0.17344959042967664      -0.07252621673785581
0.19109976799674253       0.06312894203437609      -0.03366830075166587     0.012190079313898932     0.07401329906935038      -0.178502469068154       0.27602310357934556      -0.023507335441841075    0.023507335441841075     -0.27602310357934556     0.178502469068154        -0.07401329906935038
0.1943997594432097        0.0642320832054952       -0.03425731869465221     0.012331710718079508     0.07501905319935184      -0.18190927962262896     0.28056296536726516      -0.02363463254528421     0.02363463254528421      -0.28056296536726516     0.18190927962262896      -0.07501905319935186
0.19512087993758215       0.06447303186056016      -0.034386193404781926    0.012358318538302802     0.07522075765998579      -0.18267136978225487     0.2815379180886774       -0.023645790646436602    0.023645790646436602     -0.2815379180886774      0.18267136978225487      -0.07522075765998582
0.19825293104334607       0.06552319669113277      -0.0349475260090507      0.01248523026896383      0.07614473643096879      -0.18594805033356224     0.285829892485273        -0.02373710572074184     0.02373710572074184      -0.285829892485273       0.18594805033356224      -0.0761447364309688
0.20345555126245007       0.06726958381576661      -0.03587907812446289     0.012689061604699011     0.07765817967694058      -0.19142015558612577     0.29293264842371797      -0.023854313160651487    0.023854313160651487     -0.29293264842371797     0.19142015558612577      -0.07765817967694058
0.20465809247241357       0.06767324627765652      -0.03609439843631235     0.012736175476321505     0.07800799915166201      -0.192684985958964       0.2945743897695361       -0.02388140465891001     0.02388140465891001      -0.2945743897695361      0.192684985958964        -0.07800799915166201
0.20836241571039302       0.06891673369561874      -0.03675918617230528     0.012860999795335223     0.07899990805566251      -0.19666702672681236     0.2995550250894943       -0.023888090307019227    0.023888090307019227     -0.2995550250894943      0.19666702672681236      -0.07899990805566252
0.20915710256417583       0.06918442454168516      -0.03690220611190649     0.012890657009100047     0.079224858784051        -0.19751283938268954     0.30063809545549003      -0.02390039728874934     0.02390039728874934      -0.30063809545549003     0.19751283938268954      -0.079224858784051
0.2119848849019652        0.07013696508377562      -0.03741112262063044     0.012996188068124123     0.08002531457815637      -0.20052254575694603     0.3044920503019391       -0.023944189966836584    0.023944189966836584     -0.3044920503019391      0.20052254575694603      -0.08002531457815637
0.2149164255016173        0.07112688433143673      -0.037938371155253794    0.013107531597345262     0.08086878158649306      -0.20363875573925377     0.3084990085180159       -0.02399147119226898     0.02399147119226898      -0.3084990085180159      0.20363875573925377      -0.08086878158649306
0.21747921009762988       0.07199231045248958      -0.03840034381407597     0.013190820997921193     0.08154687345443595      -0.20642236835552225     0.31194893633889187      -0.023979694528933535    0.023979694528933535     -0.31194893633889187     0.20642236835552225      -0.08154687345443595
0.21847377419621913       0.07232949055564539      -0.03857893949951115     0.013223448802082507     0.08181595782108732      -0.20750200440149416     0.31328959481815427      -0.023971632595572667    0.023971632595572667     -0.31328959481815427     0.20750200440149416      -0.08181595782108733
0.22339974135559915       0.07399950671377722      -0.03946350438829861     0.01338505074609927      0.08314870324705569      -0.21284932360805317     0.3199297295768474       -0.023931702721738432    0.023931702721738432     -0.3199297295768474      0.21284932360805317      -0.08314870324705569
0.22372166587422432       0.07410862961147625      -0.039521668355872785    0.01339475167903081      0.08323126087145735      -0.21320325757444764     0.32036127100669415      -0.023926752560789095    0.023926752560789095     -0.32036127100669415     0.21320325757444764      -0.08323126087145735
0.23184160622632485       0.0768689164961246       -0.04099798556884092     0.013637326998027246     0.08529318427783542      -0.222182481706663       0.331281097690881        -0.023805431706382538    0.023805431706382538     -0.331281097690881       0.222182481706663        -0.08529318427783542
0.23446723449484586       0.07775970983626722      -0.04147404302713225     0.013709471014060762     0.08593517464738075      -0.22510366469768817     0.3347794328101743       -0.023740593465105327    0.023740593465105327     -0.3347794328101743      0.22510366469768817      -0.08593517464738075
0.2349538390194819        0.07792449232846073      -0.041561971963857046    0.013724261867876505     0.08606011623685632      -0.22563785307698658     0.33543194801999865      -0.0237339787061557      0.0237339787061557       -0.33543194801999865     0.22563785307698658      -0.08606011623685632
0.23887227121671267       0.07925142002900704      -0.042270028628534205    0.013843366715616003     0.08706622103487552      -0.22993945908115268     0.34068639280608076      -0.023680712690052525    0.023680712690052525     -0.34068639280608076     0.22993945908115268      -0.08706622103487552
0.23904691434703304       0.07931087586378041      -0.04230179699511195     0.013847346517559946     0.08710574681246483      -0.23013775664265687     0.3409165287831365       -0.023673025328014765    0.023673025328014765     -0.3409165287831365      0.23013775664265687      -0.08710574681246483
0.24201936441616184       0.08032282233919018      -0.04284249895834912     0.0139150832933592       0.08777848097676985      -0.23351280837999097     0.34483347472686465      -0.023542185370103753    0.023542185370103753     -0.34483347472686465     0.23351280837999097      -0.08777848097676985
0.25160691807993396       0.08359653984796483      -0.04458646224563544     0.014145165009558295     0.09001435299725656      -0.2443718063946028      0.3575331264710693       -0.02314696707920977     0.02314696707920977      -0.3575331264710693      0.2443718063946028       -0.09001435299725656
0.2520956911288676        0.08376252786846759      -0.04467483583381796     0.014157884894034661     0.09013208781161998      -0.2449180236622504      0.3581811028145278       -0.0231309913406573      0.0231309913406573       -0.3581811028145278      0.2449180236622504       -0.09013208781161998
0.25249572250491314       0.08389907123025425      -0.044747454032608415    0.014166631004682236     0.09022230438141227      -0.24537398053960477     0.35870702857706277      -0.023110743656045606    0.023110743656045606     -0.35870702857706277     0.24537398053960477      -0.09022230438141227