% Model:              Cylinder_potential.mph
% Version:            COMSOL 6.2.0.339
% Date:               Apr 30 2024, 08:00
% Dimension:          1
% Nodes:              496
% Expressions:        11
% Description:        Line graph
% Arc length (m)          Magnetic scalar potential Magnetic scalar potential Magnetic scalar potential Magnetic scalar potential Magnetic scalar potential Magnetic scalar potential Magnetic scalar potential Magnetic scalar potential Magnetic scalar potential Magnetic scalar potential Magnetic scalar potential
0                         8.562820914942357E-6     -1.1742417937593303E-5   1.5356620163465591E-6    -1.1958963917485608E-5   -4.621024757724525E-5    5.849554370803865E-5     -2.42442600482712E-5     2.42442600482712E-5      -5.849554370803171E-5    4.621024757724525E-5     1.1958963917484307E-5
0.005588601991210611      5.66497258054486E-6      0.002268596497680113     -9.05202334819952E-6     0.00678091134480866      0.006758251454486481     -0.006830667641272058    0.006853327531594246     -0.006853327531594246    0.006830667641272067     -0.006758251454486481    -0.006780911344808661
0.005770155273271449      5.501034478270811E-6     0.002342646011037608     -9.102754404880778E-6    0.007002529084449871     0.006980524946536788     -0.007053346981775817    0.007075351119688909     -0.007075351119688909    0.007053346981775826     -0.006980524946536788    -0.007002529084449875
0.007974798247292922      3.510296656014151E-6     0.0032418461659464337    -9.718793214025581E-6    0.009693683918295259     0.0096796427316712       -0.009757393077383386    0.009771434264007456     -0.009771434264007456    0.009757393077383396     -0.0096796427316712      -0.009693683918295263
0.008381309475619655      3.1525425684621904E-6    0.003407562605163223     -9.928430710757943E-6    0.010189279177783592     0.010176669007509744     -0.010256096453195787    0.01026870662346965      -0.01026870662346965     0.010256096453195796     -0.010176669007509744    -0.010189279177783596
0.011526310970175872      3.847539770721303E-7     0.004689638997381444     -1.1550305322322827E-5   0.01402348527880922      0.014021946262900925     -0.01411434870547949     0.014115887721387794     -0.014115887721387794    0.0141143487054795       -0.014021946262900925    -0.014023485278809223
0.01287344227794502       4.255290036992137E-8     0.005237062934204562     -1.2627294537099598E-5   0.015660764730266057     0.01566059451866457      -0.015761612874961348    0.015761783086562845     -0.015761783086562845    0.01576161287496136      -0.01566059451866457     -0.015660764730266057
0.021826602413144963      -8.231061696678673E-7    0.008879478804584779     -8.71580214782615E-6     0.026601926992823717     0.026605219417502393     -0.026674945834684993    0.026671653410006334     -0.026671653410006334    0.026674945834684993     -0.026605219417502393    -0.026601926992823717
0.02905902002669385       -7.533773641802527E-7    0.011820242382340437     -6.414849427266369E-6    0.03543356099458391      0.03543657450404064      -0.03548789329945877     0.03548487979000206      -0.03548487979000206     0.03548789329945877      -0.03543657450404064     -0.03543356099458391
0.033013653030285015      -1.4618801615107777E-6   0.013432041141705119     -1.0926951597000278E-5   0.04024949185840436      0.040255339379050396     -0.040342754991826414    0.040336907471180385     -0.040336907471180385    0.04034275499182642      -0.040255339379050396    -0.04024949185840436
0.03364793869279028       -1.5755172969375016E-6   0.013690558390456244     -1.1650650031576145E-5   0.04102192153664858      0.04102822360583633      -0.04112142880608895     0.04111512673690121      -0.04111512673690121     0.04112142880608895      -0.04102822360583633     -0.04102192153664858
0.03442754659988738       -1.5925307895397974E-6   0.014008669405940092     -1.1576285939223876E-5   0.04197651801248432      0.041982888135642486     -0.04207549842315629     0.04206912829999814      -0.04206912829999814     0.04207549842315629      -0.041982888135642486    -0.04197651801248432
0.0372062892244856        -1.7693010959694356E-6   0.015143781696692296     -9.253784751507837E-6    0.04539079134887894      0.04539786855326282      -0.04547189883127489     0.04546482162689102      -0.04546482162689102     0.04547189883127489      -0.04539786855326282     -0.04539079134887894
0.045699237666615516      -2.3095818277367206E-6   0.01861313869148787      -2.155292552393486E-6    0.05582617574059858      0.05583541406790954      -0.05585265640832869     0.05584341808101776      -0.05584341808101776     0.05585265640832869      -0.05583541406790954     -0.05582617574059858
0.04659172908321184       -2.3570219175981664E-6   0.018977634039779045     -1.505597394339197E-6    0.0569221656859246       0.05693159377359501      -0.05694363855274972     0.056934210465079335     -0.056934210465079335    0.05694363855274972      -0.05693159377359501     -0.0569221656859246
0.04670402867415785       -2.3841931946154123E-6   0.019023605640119887     -1.5877056529227423E-6   0.057059697711358756     0.057069234484137234     -0.05708193612936061     0.05707239935658216      -0.05707239935658216     0.05708193612936061      -0.057069234484137234    -0.057059697711358756
0.05442243510763554       -4.251688503978423E-6    0.02218325647089248      -7.231046879306493E-6    0.06651234184815226      0.0665293486021682       -0.06658719697720267     0.06657019022318675      -0.06657019022318675     0.06658719697720267      -0.0665293486021682      -0.06651234184815227
0.06297917663467008       -4.975751083332924E-6    0.02569009301731983      -2.908190060830145E-6    0.07704869478954951      0.07706859779388286      -0.07709186331436951     0.07707196031003619      -0.07707196031003619     0.07709186331436951      -0.07706859779388286     -0.07704869478954951
0.06501743963868899       -4.788330762787923E-6    0.026525831112324625     -3.842418570377111E-6    0.07955254700116679      0.07957170032421797      -0.07960243967278098     0.07958328634972983      -0.07958328634972983     0.07960243967278098      -0.07957170032421797     -0.07955254700116679
0.0755317047669544        -5.367079752498162E-6    0.030847354221966886     -9.660471175855696E-6    0.09249268662169223      0.09251415494070225      -0.09259143871010908     0.0925699703910991       -0.0925699703910991      0.09259143871010908      -0.09251415494070225     -0.09249268662169223
0.07739317518354674       -5.469542845242686E-6    0.0316124469150923       -1.0690512997624138E-5   0.09478363960759592      0.09480551777897692      -0.09489104188295788     0.09486916371157694      -0.09486916371157694     0.0948910418829579       -0.09480551777897692     -0.09478363960759592
0.08484581326012355       -2.686139085559267E-6    0.03468044968673529      3.834546457408272E-7     0.1040375106006177       0.10404825515695995      -0.10404518751979404     0.1040344429634518       -0.1040344429634518      0.10404518751979405      -0.10404825515695995     -0.1040375106006177
0.09161954697573199       -1.6636806599497095E-6   0.03748280540356687      -6.2798198146372225E-6   0.11241996957012217      0.11242662429276193      -0.11247686285127909     0.11247020812863938      -0.11247020812863938     0.11247686285127909      -0.11242662429276193     -0.11241996957012217
0.09467671304044174       -2.981421749239662E-6    0.03874694802767045      -5.777808388446619E-6    0.11621177000595909      0.11622369569295599      -0.11626991816006363     0.11625799247306678      -0.11625799247306678     0.11626991816006363      -0.11622369569295599     -0.11621177000595909
0.09692453991673147       -3.950310508894517E-6    0.03967642771761108      -5.4086970114028995E-6   0.11899974774376985      0.11901554898580537      -0.11905881856189668     0.11904301731986121      -0.11904301731986121     0.11905881856189668      -0.11901554898580537     -0.11899974774376985
0.10043344164584096       -2.3050749865339898E-6   0.04112985165109         1.3363860055571643E-7    0.12338547935769917      0.12339469965764524      -0.1233936305488409      0.12338441024889486      -0.12338441024889486     0.1233936305488409       -0.12339469965764524     -0.12338547935769917
0.10717985563314539       -1.0846036264025973E-6   0.043937966756837143     -6.2831711354715105E-6   0.1317865983787167       0.1317909367932223       -0.13184120216230613     0.1318368637478006       -0.1318368637478006      0.13184120216230616      -0.1317909367932223      -0.1317865983787167
0.10928381306529256       -2.5981328245987365E-6   0.04481265272243944      -5.849427787678102E-6    0.13440936419051838      0.13441975672181675      -0.13446655214411823     0.13445615961281995      -0.13445615961281995     0.13446655214411826      -0.13441975672181675     -0.13440936419051838
0.10989215951777034       -3.035760556213305E-6    0.045065562831777164     -5.724013545505566E-6    0.13516772092003704      0.13517986396226186      -0.13522565607062598     0.1352135130284012       -0.1352135130284012      0.13522565607062598      -0.13517986396226186     -0.13516772092003704
0.11414189150964514       -2.2685319038111295E-6   0.04683533278368468      1.166735950510259E-6     0.14050612823104844      0.14051520235866366      -0.14050586847105961     0.14049679434344453      -0.14049679434344453     0.14050586847105964      -0.14051520235866366     -0.1405061282310484
0.11707961623721805       -2.584138500928094E-6    0.048064683643427385     -1.5042314194351467E-6   0.14418286572760253      0.14419320228160623      -0.14420523613296177     0.14419489957895815      -0.14419489957895815     0.14420523613296177      -0.14419320228160623     -0.14418286572760253
0.12274016429055877       -3.192264337962024E-6    0.05043345548602904      -6.650778679148321E-6    0.15126737881469451      0.1512801478720464       -0.15133335410147963     0.15132058504412785      -0.15132058504412785     0.15133335410147963      -0.1512801478720464      -0.15126737881469451
0.1228597791188092        -3.312801581169552E-6    0.05048345040562463      -6.621101785015756E-6    0.15141724120657143      0.15143049241289613      -0.1514834612271763      0.15147021002085168      -0.15147021002085168     0.1514834612271763       -0.15143049241289613     -0.15141724120657143
0.1234580458440771        -3.3772966676590583E-6   0.05073392969253121      -5.625943163399717E-6    0.15217253071160464      0.1521860398982753       -0.15223104744358254     0.15221753825691195      -0.15221753825691195     0.15223104744358254      -0.1521860398982753      -0.15217253071160464
0.12785034137344933       -2.5242069699582667E-6   0.05257495505878377      1.8000124378460985E-6    0.15772701681216272      0.15773711364004256      -0.1577227135405398      0.15771261671266007      -0.15771261671266007     0.15772271354053985      -0.15773711364004256     -0.15772701681216272
0.128430951720008         -2.5786356984948086E-6   0.052819494479561184     1.3123151802479525E-6    0.1584585754280075       0.1584688899708015       -0.15845839144935953     0.15844807690656565      -0.15844807690656565     0.15845839144935955      -0.1584688899708015      -0.1584585754280075
0.1358273987198481        -3.272008126794043E-6    0.055934703975692716     -4.900503690743205E-6    0.16777796589606153      0.16779105392856877      -0.1678302579580947      0.1678171699255876       -0.1678171699255876      0.16783025795809473      -0.16779105392856877     -0.16777796589606153
0.1390941874554962        -3.999335890795863E-6    0.057313991362134796     3.952520030246938E-6     0.1719497854947437       0.171965782838307        -0.17193416267806502     0.17191816533450185      -0.17191816533450185     0.17193416267806502      -0.171965782838307       -0.1719497854947437
0.14484688281114458       -4.1700447239372094E-7   0.05974471739667774      7.905025287627867E-6     0.17926493828223886      0.17926660630012853      -0.1792033660978275      0.17920169807993797      -0.17920169807993797     0.1792033660978275       -0.17926660630012853     -0.17926493828223886
0.1461619224899992        4.019000005125908E-7     0.06030037017963111      8.808549796227927E-6     0.18093714853807918      0.1809355409380772       -0.18086507253970735     0.1808666801397094       -0.1808666801397094      0.18086507253970738      -0.1809355409380772      -0.18093714853807918
0.1499653768079788        9.820189593593088E-7     0.06191187386775739      2.1473419747681595E-6    0.18574617500908988      0.18574224693325256      -0.18572506819745435     0.18572899627329184      -0.18572899627329184     0.1857250681974544       -0.18574224693325256     -0.18574617500908988
0.15069570298922938       1.0721236215577122E-6    0.06222087766144634      8.864581829305826E-7     0.1866683230643138       0.1866640345698277       -0.1866569429043642      0.18666123139885046      -0.18666123139885046     0.18665694290436424      -0.1866640345698277      -0.1866683230643138
0.15080890458576993       1.1368568566091466E-6    0.062269182103640235     3.980891466787765E-7     0.18681141238122057      0.18680686495379423      -0.18680368024062077     0.18680822766804725      -0.18680822766804725     0.1868036802406208       -0.18680686495379423     -0.18681141238122057
0.15829347562355967       -1.3970793767459399E-7   0.06545274430490727      -3.1166547809491894E-6   0.19634548687972256      0.19634604571147346      -0.1963709789497209      0.19637042011797032      -0.19637042011797032     0.19637097894972094      -0.19634604571147346     -0.19634548687972256
0.15999975624218354       -4.30730329726851E-7     0.06617851074559958      -3.917921735709605E-6    0.19851899908919637      0.19852072201051546      -0.198552065384401       0.1985503424630822       -0.1985503424630822      0.19855206538440104      -0.19852072201051546     -0.19851899908919637
0.16101592226382772       -1.0320357678995603E-7   0.06661060310125558      -3.706802755098419E-6    0.19981677568559264      0.1998171884999          -0.19984684292194071     0.19984643010763362      -0.19984643010763362     0.19984684292194071      -0.1998171884999         -0.19981677568559264
0.16151109072080616       2.7846264715487287E-7    0.06682294427022728      -4.885267182811904E-6    0.2004498486672448       0.20044873481665637      -0.20048781695411877     0.20048893080470748      -0.20048893080470748     0.20048781695411877      -0.20044873481665637     -0.2004498486672448
0.1626451575483461        1.1423932389435342E-6    0.06730708071795323      -7.826188005146583E-6    0.2018922221883169       0.20188765261536132      -0.20195026211940237     0.20195483169235826      -0.20195483169235826     0.2019502621194024       -0.20188765261536132     -0.2018922221883169
0.16272877252219303       1.206091014139613E-6     0.06734277619500265      -8.043022685144078E-6    0.20199856867629556      0.20199374431223915      -0.2020580884937202      0.20206291285777686      -0.20206291285777686     0.20205808849372023      -0.20199374431223915     -0.20199856867629556
0.16279395513088818       1.207355481621492E-6     0.06737051408350438      -7.961459498293704E-6    0.2020821111234831       0.2020772817015568       -0.20214097337754305     0.20214580279946961      -0.20214580279946961     0.20214097337754305      -0.2020772817015568      -0.2020821111234831
0.16439021187626912       1.2383210227013728E-6    0.06804978716738175      -5.964058814415373E-6    0.2041279819089329       0.20412302862484227      -0.20417074109535746     0.20417569437944835      -0.20417569437944835     0.20417074109535746      -0.20412302862484227     -0.2041279819089329
0.17353801084923295       -4.2243315307854013E-7   0.07196665005288937      -2.846047583913758E-6    0.2158877211020262       0.2158894108346387       -0.2159121792153099      0.2159104894826977       -0.2159104894826977      0.2159121792153099       -0.2158894108346387      -0.2158877211020262
0.1754605467179606        2.332657384429516E-7     0.0727942518968979       -7.51053812152858E-6     0.21835318006968435      0.21835224700673078      -0.21841233131170293     0.21841326437465675      -0.21841326437465675     0.21841233131170293      -0.21835224700673078     -0.21835318006968435
0.1785044457895392        2.6961044329402713E-6    0.07410372391686938      2.616622549726685E-6     0.22232703044967284      0.22231624603194128      -0.22229531305154338     0.22230609746927515      -0.22230609746927515     0.22229531305154338      -0.22231624603194128     -0.22232703044967284
0.18118217954421328       1.564210538848468E-6     0.07526069301680555      3.208157475275699E-6     0.22579804010139531      0.22579178325924013      -0.22576611799943783     0.22577237484159327      -0.22577237484159327     0.22576611799943783      -0.22579178325924013     -0.22579804010139531
0.18512031504793253       -1.0046262852126883E-7   0.07696224421890376      4.078126226996355E-6     0.2309028442363621       0.23090324608687635      -0.2308706210770603      0.23087021922654624      -0.23087021922654624     0.2308706210770603       -0.23090324608687635     -0.23090284423636204
0.18782977648235616       1.3759737548173185E-6    0.07813729308358158      4.656685980228693E-7     0.23441649387264635      0.23441098997762727      -0.23440726462884304     0.23441276852386234      -0.23441276852386234     0.23440726462884304      -0.23441098997762727     -0.2344164938726463
0.18919263439327166       2.2744024054186646E-6    0.07872660388864439      -1.5513761577321049E-6   0.23617815496611294      0.23616905735649146      -0.23618146836575324     0.23619056597537497      -0.23619056597537497     0.23618146836575324      -0.23616905735649146     -0.23617815496611286
0.1896374874570804        2.0196846726052684E-6    0.07891979589867779      -3.5915336458035177E-6   0.23674906093079517      0.23674098219210496      -0.23676971446127132     0.23677779319996178      -0.23677779319996178     0.23676971446127132      -0.23674098219210496     -0.23674906093079512
0.19368858648579484       8.922911784174279E-7     0.08066117856707226      -6.100470141708102E-6    0.2419609184030067       0.24195734923829326      -0.24200615299942685     0.24200972216414052      -0.24200972216414052     0.24200615299942685      -0.24195734923829326     -0.2419609184030067
0.19655713985760623       3.05357461156681E-7      0.08191757871597216      -7.545977162526211E-6    0.24572316295418867      0.24572194152434418      -0.24578230934164436     0.24578353077148898      -0.24578353077148898     0.24578230934164436      -0.24572194152434418     -0.2457231629541886
0.19857443438804015       -1.0740047780741463E-7   0.08280113527563684      -8.562522099585777E-6    0.24836894093755651      0.2483693705394679       -0.2484378707162645      0.24843744111435334      -0.24843744111435334     0.2484378707162645       -0.2483693705394679      -0.2483689409375565
0.1991558988913146        -1.2660322886057197E-7   0.08305474438977986      -8.976840801275992E-6    0.2491280725996767       0.24912857901259228      -0.24920039373900243     0.24919988732608706      -0.24919988732608706     0.24920039373900243      -0.24912857901259228     -0.24912807259967668
0.19990930885719146       3.0169670899489476E-7    0.08338315911839946      -7.158463966571517E-6    0.25012144689275         0.2501202401059142       -0.25017750781764675     0.25017871460448277      -0.25017871460448277     0.2501775078176467       -0.2501202401059142      -0.25012144689274995
0.20096869986714402       4.230474481262716E-7     0.08384539543377276      -3.1102689622147935E-6   0.25152459132036564      0.25152289913057324      -0.25154778128227095     0.2515494734720635       -0.2515494734720635      0.2515477812822709       -0.25152289913057324     -0.2515245913203656
0.20247035075208109       -6.8337892091745E-7      0.08450369582564095      -3.805052351578037E-6    0.25349450050967465      0.25349723402535845      -0.25352767444417107     0.25352494092848743      -0.25352494092848743     0.253527674444171        -0.25349723402535845     -0.2534945005096746
0.20552862323685947       -1.8370463614453389E-6   0.08583978794117247      -7.866350640018738E-6    0.2574842243282345       0.2574915725136804       -0.2575545033188005      0.2575471551333548       -0.2575471551333548      0.2575545033188005       -0.2574915725136804      -0.2574842243282345
0.20588539155592891       -1.9716295274552285E-6   0.0859956521882442       -8.340128751949008E-6    0.2579496527906699       0.25795753930877985      -0.2580242603387954      0.25801637382068565      -0.25801637382068565     0.2580242603387954       -0.25795753930877985     -0.2579496527906699
0.21002710701164282       -1.0427328382049228E-6   0.0878040355900542       -8.929056713360538E-7    0.2634064496818008       0.26341062061315373      -0.26341776385852445     0.2634135929271717       -0.2634135929271717      0.26341776385852445      -0.26341062061315373     -0.2634064496818008
0.21021005035370133       -1.1303295489980734E-6   0.08788428110823154      -1.4349934733317855E-6   0.2636448426917033       0.26364936400989936      -0.263660843957686       0.2636563226394901       -0.2636563226394901      0.263660843957686        -0.26364936400989936     -0.2636448426917033
0.21054605782764035       -1.291216243139604E-6    0.0880316660502267       -2.4306326201419155E-6   0.2640826931877132       0.2640878580526859       -0.26410730311364705     0.26410213824867457      -0.26410213824867457     0.26410730311364705      -0.2640878580526859      -0.2640826931877132
0.21590918254703384       -4.1389871624275326E-7   0.09039335690736963      -8.527107228731572E-6    0.27114513449576144      0.2711467900906266       -0.2712150069484564      0.2712133513535915       -0.2712133513535915      0.2712150069484564       -0.2711467900906266      -0.27114513449576144
0.2200203302588903        -8.056905269224362E-7    0.09220511729480929      -1.5643190817344238E-6   0.2766074832270471       0.27661070598915494      -0.2766232205418087      0.2766199977797011       -0.2766199977797011      0.2766232205418087       -0.27661070598915494     -0.2766074832270471
0.2211291726182447        -1.1724866388350112E-6   0.09269622657898952      -2.200258826854615E-6    0.2780775337283834       0.27808222367493896      -0.2780998257455537      0.27809513579899836      -0.27809513579899836     0.2780998257455537       -0.27808222367493896     -0.2780775337283834
0.2236973718843261        -2.0586824292520914E-6   0.09383012589891637      -2.6208312251646798E-6   0.28147577700698995      0.2814840117367071       -0.28150497838650834     0.2814967436567914       -0.2814967436567914      0.28150497838650834      -0.2814840117367071      -0.28147577700698995
0.22584598771245273       -1.4198193762120296E-6   0.09478247121664929      9.515540292007565E-7     0.28434838022731224      0.28435405950481724      -0.2843464470725835      0.2843407677950787       -0.2843407677950787      0.28434644707258355      -0.28435405950481724     -0.28434838022731224
0.23001355350613775       7.293588159740976E-7     0.09662412034457729      3.949048550653026E-8     0.2898739777133058       0.28987106027804205      -0.28987074435415794     0.28987366178942187      -0.28987366178942187     0.289870744354158        -0.28987106027804205     -0.2898739777133058
0.23295459127111007       1.5534358626273525E-6    0.09793026048556411      -7.27193215980493E-6     0.29376480059977833      0.29375858685632794      -0.2938167623136063      0.2938229760570569       -0.2938229760570569      0.29381676231360637      -0.29375858685632794     -0.29376480059977833
0.23684868594101183       1.6364434315416579E-6    0.09966097485851623      -5.930905457679611E-6    0.29896247384058094      0.298955928066855        -0.29900337531051635     0.29900992108424257      -0.29900992108424257     0.29900337531051635      -0.298955928066855       -0.29896247384058094
0.23827503266978023       2.5831359201119563E-6    0.10029736403818362      -2.8346190961448534E-6   0.30088591991000635      0.30087558736632614      -0.30089826431909517     0.3009085968627757       -0.3009085968627757      0.3008982643190952       -0.30087558736632614     -0.30088591991000635
0.24000677675338528       3.7325262352497094E-6    0.10107001151199305      9.246180371463289E-7     0.3032211980605981       0.3032062679556573       -0.3031988710113601      0.3032138011163011       -0.3032138011163011      0.3031988710113601       -0.3032062679556573      -0.3032211980605981
0.25                      8.011886941818652E-6     0.10555072694995402      -3.844731765604079E-8    0.31666805083447486      0.3166360032867079       -0.316636310865249       0.3166683584130163       -0.3166683584130163      0.316636310865249        -0.3166360032867079      -0.31666805083447486
0.25971054151256867       -5.9038449657080016E-5   0.1003907713802836       -2.740132365057328E-6    0.3010432767120763       0.30127943051070477      -0.3013013515696251      0.3010651977709969       -0.3010651977709969      0.3013013515696251       -0.30127943051070477     -0.3010432767120763
0.2637367986290337        -1.4769202425302645E-4   0.0983805666990433       3.905825251575474E-6     0.29486193934963006      0.2954527074466422       -0.2954214608446296      0.29483069274761753      -0.29483069274761753     0.2954214608446296       -0.2954527074466422      -0.29486193934963006
0.26484887505391974       -1.3621897808802834E-4   0.0978324256047972       3.334496887582924E-6     0.2932381768457658       0.293783052758118        -0.29375637678301725     0.2932115008706652       -0.2932115008706652      0.29375637678301725      -0.293783052758118       -0.2932381768457658
0.26750816706611424       -1.0878365139701961E-4   0.09652166386139137      1.9682877667832947E-6    0.28935529743244714      0.28979043203803523      -0.2897746857359009      0.28933955113031296      -0.28933955113031296     0.2897746857359009       -0.28979043203803523     -0.28935529743244714
0.26942108302990375       -5.687461678763977E-5    0.09556809537829766      -1.6219282006566253E-7   0.28658988813003733      0.286817386597188        -0.2868186841397484      0.286591185672598        -0.286591185672598       0.2868186841397484       -0.286817386597188       -0.28658988813003733
0.27180327613835764       -2.823559815218932E-5    0.09445707250418253      1.7796311695541058E-6    0.28332186484092137      0.28343480723353015      -0.28342057018417366     0.283307627791565        -0.283307627791565       0.28342057018417366      -0.28343480723353015     -0.28332186484092137
0.27506981171061057       -7.415935984333069E-5    0.09296141019496215      2.0766948616061866E-6    0.27874421864464616      0.2790408560840195       -0.2790242425251266      0.2787276050857534       -0.2787276050857534      0.2790242425251266       -0.2790408560840195      -0.27874421864464616
0.27747359725132464       -1.0795384084211786E-4   0.09186077885231454      2.295298759170131E-6     0.275375610070296        0.27580742543366443      -0.275789063043591       0.2753572476802227       -0.2753572476802227      0.275789063043591        -0.27580742543366443     -0.275375610070296
0.27913162454723883       -7.765044792224995E-5    0.09111218093890208      -1.1425573814024907E-6   0.2731766716913361       0.27348727348302504      -0.2734964139420762      0.27318581215038734      -0.27318581215038734     0.2734964139420762       -0.27348727348302504     -0.2731766716913361
0.28153390149399615       -7.005247394370088E-5    0.09010467501955209      -1.4898927150986335E-6   0.2701679605399085       0.27044817043568325      -0.270460089577404       0.2701798796816293       -0.2701798796816293      0.270460089577404        -0.27044817043568325     -0.2701679605399085
0.2831304608048717        -6.500284129596753E-5    0.08943508404734063      -1.7207326529156212E-6   0.26816836352881823      0.26842837489400206      -0.2684421407552253      0.2681821293900416       -0.2681821293900416      0.2684421407552253       -0.26842837489400206     -0.26816836352881823
0.2850163341494164        -7.20718648787644E-5     0.08864033361661308      -1.0391984250871807E-6   0.2657727003263813       0.2660609877858964       -0.266069301373297       0.26578101391378206      -0.26578101391378206     0.266069301373297        -0.2660609877858964      -0.2657727003263813
0.28712986409155955       -4.444614772547925E-5    0.08773782730956098      -1.5434785710909544E-6   0.26311841571894756      0.2632962003098495       -0.26330854813841814     0.2631307635475163       -0.2631307635475163      0.26330854813841814      -0.2632962003098495      -0.26311841571894756
0.2884343808852159        -3.5147659796739834E-5   0.08716711001437066      -1.3036863593935392E-6   0.26142581997808095      0.26156641061726793      -0.261576840108143       0.2614362494689561       -0.2614362494689561      0.261576840108143        -0.26156641061726793     -0.26142581997808095
0.2888421660645739        -3.2241000728632614E-5   0.0869887067498718       -1.2287285585194855E-6   0.26089672333392405      0.2610256873368386       -0.26103551716530665     0.2609065531623922       -0.2609065531623922      0.26103551716530665      -0.2610256873368386      -0.26089672333392405
0.28905001206774267       -2.8546232681833078E-5   0.08690241293816944      -9.279146430577032E-7    0.26064643469057247      0.2607606196212998       -0.2607680429384442      0.2606538580077169       -0.2606538580077169      0.2607680429384442       -0.2607606196212998      -0.26064643469057247
0.28981737211380926       -1.4905280556833117E-5   0.08658381925672438      1.8267962629115017E-7    0.25972237792756464      0.259781999049792        -0.2597805376127816      0.25972091649055434      -0.25972091649055434     0.2597805376127816       -0.259781999049792       -0.25972237792756464