% Model:              Cylinder_potential.mph
% Version:            COMSOL 6.2.0.339
% Date:               Apr 29 2024, 21:54
% Dimension:          1
% Nodes:              487
% Expressions:        11
% Description:        Line graph
% Arc length (m)          Magnetic scalar potential Magnetic scalar potential Magnetic scalar potential Magnetic scalar potential Magnetic scalar potential Magnetic scalar potential Magnetic scalar potential Magnetic scalar potential Magnetic scalar potential Magnetic scalar potential Magnetic scalar potential
0                         8.562820914942404E-6     -1.1742417937593232E-5   1.535662016346624E-6     -1.1958963917485391E-5   -4.6210247577245685E-5   5.8495543708037565E-5    -2.4244260048270332E-5   2.4244260048270332E-5    -5.849554370803084E-5    4.6210247577245685E-5    1.1958963917484307E-5
0.0052183511184477095     0.0021320925115139405    -1.3598958415709725E-5   4.121847348634723E-6     0.00423987553717531      -0.004288494508880438    0.004321469287669531     0.004206900758386225     -0.004206900758386225    -0.004321469287669524    0.004288494508880438     -0.004239875537175312
0.008121240043170753      0.0033101676225490905    -1.2664232459356573E-5   6.625242887444734E-6     0.006608843519269907     -0.006631826970926436    0.006684828914026011     0.006555841576170344     -0.006555841576170344    -0.0066848289140260045   0.006631826970926436     -0.006608843519269908
0.009727706876198578      0.003963042446146922     -1.1475919992154013E-5   6.452869469502308E-6     0.007917468610195409     -0.007934701174392262    0.007986324130148298     0.007865845654439384     -0.007865845654439384    -0.007986324130148291    0.007934701174392262     -0.00791746861019541
0.0174242297877404        0.007090941469570148     -5.782759111475793E-6    5.627034828377316E-6     0.014187042801119393     -0.014176723077161177    0.014221739355788215     0.014142026522492373     -0.014142026522492373    -0.014221739355788209    0.014176723077161177     -0.014187042801119393
0.02128783387989721       0.008665213992953807     -5.0318190931264006E-6   8.689379201392574E-6     0.017350090045433815     -0.017310765926381387    0.017380280959992542     0.017280575011822678     -0.017280575011822678    -0.017380280959992535    0.017310765926381387     -0.017350090045433815
0.02473421472506565       0.010069816099325382     -2.6482516782401575E-6   9.381502031225548E-6     0.020169213451740955     -0.02011005094556055     0.02018510296181036      0.020094161435491156     -0.020094161435491156    -0.02018510296181035     0.02011005094556055      -0.020169213451740955
0.02700830035913467       0.010996639226305293     -1.07546078264686E-6     9.838197519926626E-6     0.022029404860342362     -0.02195715204487879     0.0220358576250382       0.021950699280182954     -0.021950699280182954    -0.02203585762503819     0.02195715204487879      -0.022029404860342362
0.02845285720581498       0.011581857200020541     1.6592387847109633E-6    1.0806301727316124E-5    0.02321191732330449      -0.023115511476777657    0.02320196189059618      0.023125466909485966     -0.023125466909485966    -0.02320196189059617     0.023115511476777657     -0.023211917323304493
0.03144645230172245       0.012808433459325922     -3.835195997598244E-7    1.2887941555342035E-5    0.025667268126073943     -0.025566465711229724    0.025669569243672453     0.025564164593631214     -0.025564164593631214    -0.02566956924367244     0.025566465711229724     -0.025667268126073943
0.03669606209801566       0.014951771677000018     -9.974782390245306E-7    1.3284077697938229E-5    0.02995368723007472      -0.02985339947792532     0.029959672099508804     0.029847414608491232     -0.029847414608491232    -0.02995967209950879     0.029853399477925324     -0.02995368723007472
0.042744107186791905      0.017419634922299324     -8.030958300203096E-7    1.5401493999358222E-5    0.03489846653310603      -0.03478007315609124     0.03490328510808607      0.03477525458111118      -0.03477525458111118     -0.03490328510808605     0.034780073156091246     -0.03489846653310603
0.04279671445845634       0.017441100958063026     -8.0140504761907E-7      1.5419911767903226E-5    0.034941477348054806     -0.034822926484197256    0.03494628577834045      0.034818118053911606     -0.034818118053911606    -0.03494628577834043     0.034822926484197256     -0.034941477348054806
0.04475995973137766       0.01824583628733592      -3.6408162128924795E-7   1.5568345506198532E-5    0.036552853711832776     -0.036430491437510884    0.03655503820156044      0.03642830694778321      -0.03642830694778321     -0.036555038201560426    0.036430491437510884     -0.036552853711832776
0.044774212898545544      0.01825167866848525      -3.6090665176953356E-7   1.5569423135629047E-5    0.03656455230955772      -0.03644216236438325     0.036566717749468264     0.03643999692447271      -0.03643999692447271     -0.03656671774946824     0.03644216236438326      -0.03656455230955772
0.05816562067185961       0.02372167748081447      2.0005240909714618E-6    1.2631153198300774E-5    0.047499881146695073     -0.047386828776562785    0.047487878002149174     0.04739883192110869      -0.04739883192110869     -0.04748787800214915     0.04738682877656279      -0.047499881146695073
0.06009322616287718       0.024509532084266938     2.191357846839095E-6     9.492779658743772E-6     0.04906360936070938      -0.04897451897635834     0.049050461213628285     0.04898766712343946      -0.04898766712343946     -0.04905046121362826     0.04897451897635835      -0.04906360936070938
0.06754651046041504       0.02756156226908083      2.4046926038654402E-6    -7.466480416210258E-6    0.05510047269430843      -0.05514577638201486     0.05508604453868518      0.05516020453763813      -0.05516020453763813     -0.05508604453868517     0.055145776382014865     -0.05510047269430843
0.06922161745805161       0.02824749841689001      2.4526390567413455E-6    -1.1278031685719298E-5   0.05645724262420739      -0.05653275104335264     0.05644252678986688      0.05654746687769317      -0.05654746687769317     -0.05644252678986687     0.05653275104335265      -0.05645724262420739
0.07461346157457144       0.030463344894963558     2.9968348873428636E-6    -8.50684508599065E-6     0.060901652914245194     -0.06095172666560902     0.06088367190492109      0.060969707674933156     -0.060969707674933156    -0.06088367190492108     0.06095172666560902      -0.060901652914245194
0.07889723485301617       0.03222324020328145      3.075268128722845E-6     -7.840499759904087E-6    0.06442434421190946      -0.0644686166012163      0.06440589260313709      0.06448706820998873      -0.06448706820998873     -0.06440589260313709     0.0644686166012163       -0.06442434421190946
0.08028619172413266       0.0327927554483268       3.2883978871751387E-6    -1.042985249140335E-5    0.06555365668034951      -0.06561736511295765     0.06553392629302644      0.06563709550028078      -0.06563709550028078     -0.06553392629302643     0.06561736511295765      -0.06555365668034951
0.08080363067569152       0.03300522918775093      3.632592092027773E-6     -1.1469978402386837E-5   0.0659754762381684       -0.0660454405128353      0.0659536806856162       0.06606723606538754      -0.06606723606538754     -0.06595368068561619     0.0660454405128353       -0.0659754762381684
0.08136013749288613       0.03323518461858427      3.883977646924289E-6     -1.1906940277990686E-5   0.06643439340899736      -0.0665063450653397      0.06641108954311578      0.06652964893122132      -0.06652964893122132     -0.06641108954311578     0.0665063450653397       -0.06643439340899736
0.08378226384120713       0.03423770693500801      3.4583779794180756E-6    -1.508649806640886E-5    0.06842544301168865      -0.06852538472834338     0.06840469274381211      0.06854613499621996      -0.06854613499621996     -0.0684046927438121      0.06852538472834338      -0.06842544301168865
0.08910943686001896       0.03643526990509792      2.688636099443557E-6     -1.3134848502470691E-5   0.07282606632448428      -0.07291501329590735     0.07280993450788759      0.07293114511250408      -0.07293114511250408     -0.07280993450788759     0.07291501329590735      -0.07282606632448428
0.09339677747853736       0.03820388169040084      2.0691432434506805E-6    -1.1564149293145432E-5   0.07636771421335943      -0.07644781254824387     0.0763552993538987       0.07646022740770464      -0.07646022740770464     -0.0763552993538987      0.07644781254824387      -0.07636771421335944
0.0988379590219764        0.0404625491798984       1.2141237189006084E-7    -2.9055274078199317E-6   0.08091384048728119      -0.08093635623231238     0.08091311201304982      0.08093708470654379      -0.08093708470654379     -0.08091311201304982     0.08093635623231238      -0.0809138404872812
0.1003026056513202        0.04107053288690961      -4.028740231003551E-7    -5.748164661134798E-7    0.08213755788588545      -0.08214457366175293     0.08213997513002404      0.0821421564176144       -0.0821421564176144      -0.08213997513002402     0.08214457366175293      -0.08213755788588546
0.1045884218250769        0.042847183996492885     -2.221118082471106E-6    -7.294034815434378E-6    0.08565852849947662      -0.0857302074864949      0.08567185520797146      0.08571688077800016      -0.08571688077800016     -0.08567185520797144     0.0857302074864949       -0.08565852849947664
0.10598992428138322       0.04342911422793554      -1.4147226843952746E-6   -8.849746877485513E-6    0.08681858530030798      -0.0868978716114342      0.08682707363641434      0.0868893832753279       -0.0868893832753279      -0.08682707363641431     0.0868978716114342       -0.08681858530030799
0.10749724349053778       0.0440588802944962       -8.692062103326311E-7    -8.676520151510442E-6    0.08808044688975536      -0.08815507428822941     0.08808566212701735      0.08814985905096749      -0.08814985905096749     -0.08808566212701732     0.08815507428822941      -0.08808044688975539
0.10800948052308314       0.04427324886631133      -1.0052164421587868E-6   -8.887870580580924E-6    0.08850793060097387      -0.08858506486427144     0.08851396189962682      0.08857903356561857      -0.08857903356561857     -0.08851396189962679     0.08858506486427144      -0.08850793060097388
0.1139079901759403        0.04674174491361494      -2.5714008730806474E-6   -1.132161212365738E-5    0.09343048917611602      -0.09353649047834375     0.09344591758135451      0.09352106207310534      -0.09352106207310534     -0.0934459175813545      0.09353649047834375      -0.09343048917611603
0.1231318806343735        0.05060206177549885      -5.614020243529432E-6    -3.661487457600534E-6    0.10117263554043673      -0.10123561156155869     0.10120631966189791      0.1012019274400976       -0.1012019274400976      -0.10120631966189791     0.1012356115615587       -0.10117263554043673
0.12553579908249826       0.05160813258279097      -6.406983784045228E-6    -1.6651156356831156E-6   0.1031903837516871       -0.1032421465794768      0.10322882565439133      0.1032037046767726       -0.1032037046767726      -0.10322882565439133     0.1032421465794768       -0.10319038375168711
0.1256545809702185        0.051657827541381866     -6.4333003753002055E-6   -1.7319542506416236E-6   0.1032894273646353       -0.1033418828008922      0.10332802716688706      0.10330328299864047      -0.10330328299864047     -0.10332802716688706     0.1033418828008922       -0.10328942736463531
0.12576190052359093       0.0517029962755977       -6.385519331957132E-6    -1.9690267049165417E-6   0.10337895988637989      -0.10343302521601096     0.1034172730023716       0.10339471210001928      -0.10339471210001928     -0.1034172730023716      0.10343302521601096      -0.1033789598863799
0.12741700324131483       0.05239752312999543      -5.556775454476767E-6    -3.8244094384901745E-6   0.1047630782958735       -0.10482701422410828     0.10479641894860035      0.10479367357138147      -0.10479367357138147     -0.10479641894860035     0.10482701422410828      -0.10476307829587353
0.13136543737443346       0.0540543952436747       -3.579713500307313E-6    -8.250634129436146E-6    0.10806504881033077      -0.1081525321643681      0.10808652709133261      0.10813105388336629      -0.10813105388336629     -0.10808652709133258     0.1081525321643681       -0.1080650488103308
0.13226243605355284       0.05443140216760649      -3.413524931292081E-6    -7.419101559790218E-6    0.10882288735418         -0.10890272131624605     0.10884336850376773      0.10888224016665836      -0.10888224016665836     -0.10884336850376772     0.10890272131624605      -0.10882288735418
0.1355062748640658        0.05579478175795627      -2.8125330429155113E-6   -4.41200948216169E-6     0.11156347787885518      -0.11161564915296995     0.11158035307711266      0.11159877395471253      -0.11159877395471253     -0.11158035307711266     0.11161564915296995      -0.1115634778788552
0.14301217431664248       0.05895978515908232      -2.387614232916878E-6    -6.4964052220564715E-6   0.1178864218545777       -0.11795271878175163     0.1179007475399752       0.1179383930963542       -0.1179383930963542      -0.1179007475399752      0.11795271878175162      -0.1178864218545777
0.14540575213541304       0.05997508822347224      -6.561302514487615E-7    -1.110172980228779E-5    0.11990380113698101      -0.11999655175690797     0.11990773791848972      0.11999261497539936      -0.11999261497539936     -0.11990773791848972     0.11999655175690797      -0.11990380113698101
0.15553652201645274       0.06427913115745942      3.4766026156386016E-6    -9.845612432423664E-6    0.12852930967303608      -0.1285872149568016      0.12850845005734227      0.1286080745724955       -0.1286080745724955      -0.12850845005734227     0.1285872149568016       -0.12852930967303608
0.15809643381330152       0.06536622222066248      4.357598281060895E-6     -8.720229447158621E-6    0.13071063631837948      -0.13075425256427037     0.13068449072869315      0.13078039815395684      -0.13078039815395684     -0.13068449072869315     0.13075425256427037      -0.13071063631837948
0.15880209667512538       0.06566588871372968      4.600452711936762E-6     -8.410007439116267E-6    0.13131193875583866      -0.13135161609907994     0.13128433603956707      0.1313792188153517       -0.1313792188153517      -0.13128433603956707     0.13135161609907994      -0.13131193875583866
0.15944606689639268       0.06593854987267979      4.857814856935736E-6     -7.426250548269157E-6    0.13186196818773727      -0.13189223130298178     0.1318328212985957       0.13192137819212352      -0.13192137819212352     -0.1318328212985957      0.13189223130298178      -0.13186196818773727
0.15992194063567744       0.06614035698990801      4.897883635010205E-6     -5.724684261583143E-6    0.13227250889367465      -0.13228891906595724     0.13224312159186463      0.13231830636776742      -0.13231830636776742     -0.13224312159186463     0.13228891906595724      -0.13227250889367465
0.16007591206777808       0.06620571374671169      4.693713233769114E-6     -5.193478493018759E-6    0.1324047347191525       -0.13241812026769403     0.13237657243974996      0.13244628254709678      -0.13244628254709678     -0.13237657243974996     0.13241812026769403      -0.1324047347191525
0.16014959786340172       0.06623699139710926      4.596003819411985E-6     -4.93926042696264E-6     0.13246801376396883      -0.13247995182446803     0.1324404377410524       0.13250752784738468      -0.13250752784738468     -0.1324404377410524      0.13247995182446803      -0.13246801376396883
0.16125001172773076       0.06670928177890126      4.075653003683093E-6     -2.6579888023264567E-6   0.1334201585616042       -0.13341696855400068     0.13339570464358214      0.1334414224720229       -0.1334414224720229      -0.13339570464358214     0.13341696855400068      -0.1334201585616042
0.16128965099651496       0.06672629469194688      4.056908850673888E-6     -2.5758125029994157E-6   0.13345445686043375      -0.13345072190735366     0.13343011540732974      0.13347506336045784      -0.13347506336045784     -0.13343011540732974     0.13345072190735366      -0.13345445686043375
0.16138022874977784       0.0667648098704387       4.036415912519323E-6     -2.2084367766188278E-6   0.13353289524150846      -0.13352634424024626     0.13350867674603337      0.1335505627357215       -0.1335505627357215      -0.13350867674603337     0.13352634424024626      -0.13353289524150846
0.16183245003743968       0.06695774484919094      3.8050633770813624E-6    -2.2688296093800687E-6   0.13391782957007556      -0.13391314982668806     0.1338949991898131       0.1339359802069507       -0.1339359802069507      -0.1338949991898131      0.13391314982668806      -0.13391782957007556
0.16901696407634284       0.0700223708165946       -8.163833537138451E-7    2.9393378628879695E-6    0.14005404983457956      -0.14003543343179867     0.14005894813470188      0.14003053513167651      -0.14003053513167651     -0.14005894813470188     0.14003543343179867      -0.14005404983457956
0.16974092702734705       0.07033274012930552      2.8622622646567834E-7    1.7463971326453113E-6    0.140673324525821        -0.14065763599140096     0.14067160716846222      0.1406593533487599       -0.1406593533487599      -0.14067160716846222     0.14065763599140096      -0.140673324525821
0.17024827194510977       0.07055157763977112      2.3033007406773106E-7    9.308933855348817E-7     0.14110756984330652      -0.14109874071577777     0.14110618786286214      0.14110012269622232      -0.14110012269622232     -0.14110618786286214     0.14109874071577777      -0.14110756984330652
0.1746825603610523        0.0724642579557788       -2.5821263602363986E-7   -6.1967601936438395E-6   0.14490295423287491      -0.14495407759024015     0.14490450350869108      0.14495252831442412      -0.14495252831442412     -0.14490450350869108     0.14495407759024015      -0.14490295423287491
0.17696171962043505       0.07344490197833918      8.20106423648115E-7      -5.4228845411766495E-6   0.14687057273778456      -0.14690903517557202     0.14686565209924268      0.14691395581411404      -0.14691395581411404     -0.14686565209924268     0.14690903517557202      -0.14687057273778456
0.18111733242786782       0.07523502637281006      -2.678715031865413E-7    1.2496285768582758E-6    0.15047424764541795      -0.15046585784582217     0.1504758548744371       0.15046425061680316      -0.15046425061680316     -0.1504758548744371      0.15046585784582217      -0.15047424764541795
0.1866335860053896        0.07762441814474466      2.4826201344734433E-6    -1.5035849110099555E-6   0.1552502698102487       -0.1552474027687299      0.15523537408944188      0.15526229848953682      -0.15526229848953682     -0.15523537408944185     0.1552474027687299       -0.1552502698102487
0.18904223288274943       0.07866578594486964      2.519974962782688E-6     -5.308329349379241E-6    0.1573178984972301       -0.15734524528224836     0.15730277864745346      0.15736036513202523      -0.15736036513202523     -0.15730277864745343     0.15734524528224839      -0.1573178984972301
0.19070241644587427       0.0793835589489515       2.545722145794833E-6     -7.930786895084317E-6    0.15874303191676004      -0.15879120387904588     0.1587277575838853       0.1588064782119208       -0.1588064782119208      -0.15872775758388527     0.15879120387904588      -0.15874303191676004
0.1964837658066578        0.08189430759146457      -2.1710096411321073E-7   -2.3114894042024925E-6   0.16377871792242         -0.1637985124434382      0.16378002052820467      0.16379720983765367      -0.16379720983765367     -0.16378002052820465     0.1637985124434382       -0.16377871792242
0.1988128688708074        0.08291134850358647      4.409629546086192E-7     -4.949902642607966E-6    0.16580422028546637      -0.16584117372887947     0.16580157450773872      0.1658438195066073       -0.1658438195066073      -0.1658015745077387      0.1658411737288795       -0.16580422028546637
0.20182539412401196       0.08422582387220622      1.457687071829833E-6     -6.620163562480333E-6    0.168429540151378        -0.1684737553374468      0.16842079402894705      0.1684825014598779       -0.1684825014598779      -0.168420794028947       0.1684737553374468       -0.168429540151378
0.20444311327131354       0.0853680308420671       2.3411645418831535E-6    -8.071528654370779E-6    0.17071079906314238      -0.17076132430512594     0.17069675207589108      0.17077537129237735      -0.17077537129237735     -0.17069675207589102     0.17076132430512594      -0.17071079906314238
0.2050355603902514        0.08562768580435161      2.2488048811897428E-6    -6.888322828838605E-6    0.17123456473203147      -0.1712761784853749      0.1712210719027443       0.17128967131466216      -0.17128967131466216     -0.17122107190274427     0.1712761784853749       -0.17123456473203147
0.20726767947352964       0.08660596855374236      1.9008282355642168E-6    -2.4304459682821216E-6   0.1732079178083183       -0.17321595640665105     0.17319651283890491      0.1732273613760646       -0.1732273613760646      -0.17319651283890491     0.17321595640665105      -0.1732079178083183
0.21185019918544773       0.08861066556405964      -1.0274130527881693E-6   1.7700766493768192E-6    0.17722532919555845      -0.17721733306068005     0.1772314936738752       0.17721116858236347      -0.17721116858236347     -0.1772314936738752      0.17721733306068005      -0.17722532919555845
0.21403345913194585       0.08957406155636104      -1.9979015372781003E-7   3.527748657254553E-6     0.1791616347368899       -0.17913461148855414     0.1791628334778123       0.1791334127476319       -0.1791334127476319      -0.1791628334778123      0.17913461148855414      -0.1791616347368899
0.21549587122777314       0.09021937269050834      3.545761462225719E-7     4.7050893623504084E-6    0.18045862946690472      -0.18041886129512857     0.18045650201002744      0.18042098875200596      -0.18042098875200596     -0.18045650201002744     0.18041886129512857      -0.18045862946690475
0.21994968806696688       0.09217902951709296      -9.845392372400275E-7    3.1036882536113436E-6    0.18436752016948865      -0.18434859789888314     0.18437342740491217      0.18434269066345982      -0.18434269066345982     -0.18437342740491217     0.18434859789888314      -0.18436752016948865
0.2213876493900909        0.09281149181421246      -4.5646696851341486E-7   1.912135991939543E-6     0.1856292627714871       -0.18561670448536263     0.18563200157329826      0.18561396568355165      -0.18561396568355165     -0.18563200157329826     0.18561670448536263      -0.1856292627714871
0.22388677836958087       0.09392006701475772      1.2791779637880466E-6    2.091474240246351E-6     0.18785233746036778      -0.18782793059866304     0.1878446623925851       0.18783560566644586      -0.18783560566644586     -0.1878446623925851      0.18782793059866304      -0.18785233746036778
0.22699724748974875       0.09530002121333402      1.3706783491324493E-6    4.3973216481399315E-6    0.19062174374830798      -0.19057834110502803     0.19061351967821324      0.1905865651751229       -0.1905865651751229      -0.19061351967821324     0.19057834110502803      -0.190621743748308
0.2301354245460027        0.09668828258256755      -6.701619003638077E-7    3.0689109594865874E-6    0.19338683032327195      -0.19336630000699817     0.19339085129467415      0.19336227903559605      -0.19336227903559605     -0.19339085129467415     0.19336630000699817      -0.19338683032327197
0.23092509959473415       0.09703761767257361      -1.1837086488693813E-6   2.7346363929170876E-6    0.19408262276477228      -0.19406784792552212     0.19408972501666555      0.19406074567362896      -0.19406074567362896     -0.19408972501666555     0.19406784792552212      -0.19408262276477228
0.23497484403952035       0.09884433132946202      -2.492033264134925E-6    4.666744412366804E-6     0.1976998535367811       -0.19767747178106693     0.1977148057363659       0.19766251958148215      -0.19766251958148215     -0.1977148057363659      0.19767747178106693      -0.1976998535367811
0.23849862375172437       0.10041582424752182      -1.2768924128285638E-6   4.69497284479911E-6      0.2008465977091844       -0.20081669928090284     0.20085425906366133      0.20080903792642593      -0.20080903792642593     -0.20085425906366133     0.20081669928090284      -0.2008465977091844
0.23961528379323288       0.10091240073940366      -1.6508656541727599E-6   3.403428369499304E-6     0.20183346259532284      -0.20181614036229178     0.20184336778924786      0.20180623516836677      -0.20180623516836677     -0.20184336778924786     0.20181614036229178      -0.20183346259532284
0.2404625497993773        0.10128917824140286      -1.9346179179058473E-6   2.4234687679478803E-6    0.20258224650412385      -0.2025744664614876      0.20259385421163126      0.20256285875398022      -0.20256285875398022     -0.20259385421163126     0.2025744664614876       -0.20258224650412385
0.25                      0.10556624790171516      -2.00748616117806E-6     -2.015448541624068E-8    0.21112639272700512      -0.21113859887985545     0.21113843764397214      0.21112655396288837      -0.21112655396288837     -0.21113843764397214     0.21113859887985545      -0.21112639272700512
0.2593129361542891        0.1005858236378392       -1.4693259633498813E-6   8.507542544884905E-8     0.2011675795994901       -0.2011757149518666      0.20117639555527017      0.2011668989960865       -0.2011668989960865      -0.20117639555527017     0.20117571495186656      -0.2011675795994901
0.26047815303868066       0.09999888623897575      3.358995606763212E-5     9.278135655222286E-7     0.20010225360041645      -0.19989329135548647     0.19990071386401062      0.20009483109189224      -0.20009483109189224     -0.19990071386401062     0.19989329135548645      -0.20010225360041645
0.2653749282242291        0.09755619856488151      3.940590658512821E-5     -2.533257885082942E-6    0.19522048181797808      -0.1950043124415479      0.19498404637846725      0.1952407478810587       -0.1952407478810587      -0.19498404637846722     0.1950043124415479       -0.19522048181797808
0.26591586050681715       0.09729051981377604      3.2582195855172325E-5    -2.080470004827247E-6    0.19467046433509827      -0.1944916149200058      0.19447497115996717      0.19468710809513687      -0.19468710809513687     -0.19447497115996715     0.1944916149200058       -0.19467046433509827
0.2686258723083358        0.09595949821627803      -1.6038514627201596E-6   1.8794794428610464E-7    0.19191493666994502      -0.19192305619516695     0.19192455977872128      0.19191343308639072      -0.19191343308639072     -0.19192455977872125     0.19192305619516695      -0.19191493666994502
0.268689532693667         0.09593020939197919      -4.951616775377462E-7    2.8655770753826227E-7    0.19186007952975592      -0.19186075803816072     0.19186305049982108      0.1918577870680956       -0.1918577870680956      -0.19186305049982105     0.19186075803816072      -0.19186007952975592
0.2688323564050819        0.09586449916154986      1.992212363688155E-6     5.077912469854325E-7     0.19173700612517872      -0.1917209905210206      0.1917250528509965       0.1917329437952028       -0.1917329437952028      -0.19172505285099647     0.1917209905210206       -0.19173700612517872
0.2709563060727987        0.09486529198156549      4.072090273156859E-5     3.6773482938889137E-6    0.18986745606450123      -0.1895937118617606      0.18962313064811176      0.18983803727815007      -0.18983803727815007     -0.1896231306481117      0.1895937118617606       -0.18986745606450123
0.2736202428548944        0.09362504690902561      1.2306783551589186E-5    3.843156638308969E-6     0.1873023867952592       -0.18719780084084311     0.18722854609394962      0.1872716415421527       -0.1872716415421527      -0.18722854609394957     0.18719780084084311      -0.1873023867952592
0.27529987767279795       0.09283809430979298      8.409623559318025E-6     2.331742203054958E-6     0.1857107444590761       -0.18564163278009566     0.1856602867177201       0.1856920905214516       -0.1856920905214516      -0.1856602867177201      0.18564163278009566      -0.1857107444590761
0.2779388084623824        0.09160168659668627      2.28666433870785E-6      -4.2891881985268436E-8   0.18321006161886072      -0.18319668476788423     0.1831963416328284       0.18321040475391656      -0.18321040475391656     -0.18319634163282839     0.18319668476788423      -0.18321006161886072
0.2803584179095011        0.09054321501880463      6.93344634738815E-5      -4.975382525992556E-7    0.18129244327502056      -0.18088041680019792     0.18087643649417717      0.18129642358104128      -0.18129642358104128     -0.18087643649417717     0.18088041680019792      -0.18129244327502056
0.28074985645784284       0.09037197805392987      8.018129381430337E-5     -5.710898398332572E-7    0.18098221562994335      -0.180505696585776       0.18050112786705744      0.18098678434866192      -0.18098678434866192     -0.18050112786705744     0.180505696585776        -0.18098221562994335
0.28143445910691667       0.0900777568489434       8.970257023394561E-5     3.572015738607221E-7     0.18042605021488411      -0.1798849771808894      0.17988783479348036      0.18042319260229317      -0.18042319260229317     -0.17988783479348036     0.1798849771808894       -0.18042605021488411
0.28321393605313694       0.08932167464075155      6.302331471511003E-5     2.2535032144068508E-7    0.17883332062693422      -0.1784533779360719      0.17845518073864347      0.17883151782436263      -0.17883151782436263     -0.17845518073864347     0.1784533779360719       -0.17883332062693422