% Model:              Cylinder_potential.mph
% Version:            COMSOL 6.2.0.339
% Date:               Apr 30 2024, 08:45
% Dimension:          1
% Nodes:              488
% Expressions:        11
% Description:        Line graph
% Arc length (m)          Magnetic scalar potential Magnetic scalar potential Magnetic scalar potential Magnetic scalar potential Magnetic scalar potential Magnetic scalar potential Magnetic scalar potential Magnetic scalar potential Magnetic scalar potential Magnetic scalar potential Magnetic scalar potential
0                         8.56282091494261E-6      -1.1742417937593225E-5   1.535662016346681E-6     -1.1958963917484307E-5   -4.621024757724525E-5    5.849554370803908E-5     -2.42442600482712E-5     2.42442600482712E-5      -5.849554370803301E-5    4.621024757724525E-5     1.195896391748344E-5
0.007920309157662562      4.239762680908606E-6     -5.439036997046797E-6    0.001487452806806414     0.005941973641596352     0.005925014590872725     0.005974607863578606     -0.005957648812854977    0.005957648812854977     -0.0059746078635786      -0.005925014590872725    -0.005941973641596354
0.010547693861698125      4.356519583603271E-6     -2.2227128432314577E-6   0.001977760094743524     0.007913085279611628     0.007895659201277218     0.007926421556670992     -0.007908995478336586    0.007908995478336586     -0.007926421556670987    -0.007895659201277218    -0.00791308527961163
0.028621842040060155      5.598559044090807E-6     1.58561285444193E-5      0.0053461279665603       0.02144327736996264      0.021420883133786265     0.021348140598696132     -0.021325746362519788    0.021325746362519788     -0.02134814059869613     -0.021420883133786265    -0.02144327736996264
0.044171938192839516      1.936383688130221E-6     8.21356093948125E-6      0.008276188344194576     0.03313326682697301      0.03312552129222049      0.033083985461336105     -0.03307623992658362     0.03307623992658362      -0.0330839854613361      -0.03312552129222049     -0.03313326682697301
0.04585160840864184       3.187150306983001E-6     4.1459557625033155E-6    0.008593950958676133     0.03439461600260601      0.03438186740137807      0.03436974026803096      -0.034356991666803074    0.034356991666803074     -0.034369740268030954    -0.03438186740137807     -0.03439461600260601
0.04826504884301288       2.491106214081774E-6     4.269236272892523E-6     0.00906328413947665      0.03627092647915345      0.036260962054297116     0.036245311061516065     -0.036235346636659775    0.036235346636659775     -0.03624531106151606     -0.036260962054297116    -0.03627092647915345
0.056954117429750865      -1.4849506424139108E-8   4.713080999668284E-6     0.01075301641541342      0.04302617520563985      0.043026234603665545     0.042997896719641805     -0.04299795611766754     0.04299795611766754      -0.0429978967196418      -0.043026234603665545    -0.04302617520563985
0.059722034345619034      3.496381587908727E-7     6.42724995934959E-6      0.01129209248655268      0.045188350972406366     0.045186952419771206     0.045149787472650235     -0.04514838892001511     0.04514838892001511      -0.04514978747265022     -0.045186952419771206    -0.045188350972406366
0.06307342341441771       4.075851105501253E-6     2.033950086573778E-6     0.01194733314208917      0.04780358612082741      0.047787282716405415     0.04779138242030793      -0.04777507901588597     0.04777507901588597      -0.047791382420307914    -0.047787282716405415    -0.04780358612082741
0.06308137477722342       4.091147354728992E-6     2.028994592985094E-6     0.011948868708823574     0.047809744113782714     0.047793379524363806     0.04779757014622476      -0.047781205556805886    0.047781205556805886     -0.047797570146224745    -0.047793379524363806    -0.047809744113782714
0.06308932981119679       4.098232691575539E-6     2.043707619692371E-6     0.011950447026052712     0.04781611569245308      0.04779972276168679      0.04780385344673489      -0.04778746051596863     0.04778746051596863      -0.04780385344673488     -0.04779972276168679     -0.04781611569245308
0.06309720935308841       4.093559079611134E-6     2.045198467039162E-6     0.011951998279217843     0.047822315830431714     0.047805941594113284     0.04781004463962945      -0.04779367040331105     0.04779367040331105      -0.047810044639629436    -0.047805941594113284    -0.047822315830431714
0.07527213049839857       -3.12778169285751E-6     4.348752295067109E-6     0.014348886984380837     0.05740233863102284      0.05741484975779428      0.05737624611725241      -0.05738875724402387     0.05738875724402387      -0.057376246117252394    -0.05741484975779428     -0.05740233863102284
0.08031114114580502       -1.1775541601626287E-6   -4.424083096767149E-6    0.015344723371848012     0.06136326612978143      0.06136797634642209      0.061389810628362004     -0.061394520845002694    0.061394520845002694     -0.06138981062836199     -0.06136797634642209     -0.06136326612978143
0.08069773072588098       -1.4273016584705265E-6   -4.141189966398121E-6    0.015423166369339741     0.06167738730414283      0.06168309651077672      0.0617022344439412       -0.06170794365057512     0.06170794365057512      -0.06170223444394119     -0.06168309651077672     -0.06167738730414283
0.08528639281944206       -4.391703539716467E-6    -7.83362826829205E-7     0.016354253050529857     0.06540587870655953      0.0654234455207184       0.06541057888352048      -0.06542814569767938     0.06542814569767938      -0.06541057888352048     -0.0654234455207184      -0.06540587870655953
0.09082222665117806       -5.64247654397492E-6     6.413135436860763E-6     0.017479148826821608     0.06992454976050907      0.069947119666685        0.06988607094788789      -0.06990864085406383     0.06990864085406383      -0.06988607094788789     -0.069947119666685       -0.06992454976050907
0.09491661519090136       5.2280458634592416E-6    8.802914552067135E-6     0.018324380734809496     0.07333438777462112      0.0733134755911673       0.07328157028730868      -0.0732606581038549      0.0732606581038549       -0.0732815702873087      -0.0733134755911673      -0.07333438777462112
0.09947807749804058       1.3611678119273478E-6    -5.822323210315228E-6    0.019266885073948394     0.07705279566178651      0.07704735099053882      0.07708772960104836      -0.0770822849298007      0.0770822849298007       -0.07708772960104837     -0.07704735099053882     -0.07705279566178651
0.11050642082608422       -2.7086692184790718E-5   -4.073786897141414E-6    0.02160664456062029      0.08636018349742021      0.08646853026615937      0.08638462621880297      -0.08649297298754219     0.08649297298754219      -0.08638462621880297     -0.08646853026615937     -0.08636018349742021
0.11073629821280417       -2.724208217236884E-5    -4.567933011689906E-6    0.021655611656600206     0.08655425866302106      0.08666322699171054      0.08658166626109111      -0.08669063458978066     0.08669063458978066      -0.08658166626109112     -0.08666322699171054     -0.08655425866302106
0.11132314345246268       -2.7638771363080305E-5   -5.829419838020362E-6    0.02178061789399372      0.0870497057737347       0.08716026085918703      0.08708468229276274      -0.08719523737821512     0.08719523737821512      -0.08708468229276274     -0.08716026085918703     -0.0870497057737347
0.11370731010143889       -2.2679577318707896E-5   -8.299656617569774E-6    0.02230825844341527      0.08916277564917101      0.08925349395844584      0.08921257358887633      -0.08930329189815123     0.08930329189815123      -0.08921257358887633     -0.08925349395844584     -0.08916277564917101
0.12433348143462643       3.505962096581115E-6     -1.1420296995954139E-5   0.024633619059561573     0.09850722727145161      0.0984932034230653       0.09857574905342724      -0.09856172520504097     0.09856172520504097      -0.09857574905342724     -0.0984932034230653      -0.09850722727145161
0.12477023033953309       1.8518507681203203E-6    -1.061907165694309E-5    0.024730447543363385     0.09889363666001896      0.09888622925694648      0.09895735108996052      -0.0989499436868881      0.0989499436868881       -0.09895735108996052     -0.09888622925694648     -0.09889363666001896
0.1280020965057285        -1.0388286247714221E-5   -4.690143076808008E-6    0.025446961533913487     0.10175299913392812      0.10179455227891898      0.10178113999238887      -0.10182269313737978     0.10182269313737978      -0.10178113999238887     -0.10179455227891898     -0.10175299913392812
0.12962552211902545       -9.439311080784439E-6    1.549468020208358E-6     0.025810283272322022     0.10322690287118717      0.10326466011551032      0.10321760606306583      -0.10325536330738903     0.10325536330738903      -0.10321760606306583     -0.10326466011551032     -0.10322690287118717
0.13371081692195183       -2.4955146661532596E-5   1.0926324909670644E-5    0.026773788027588872     0.10707802079176146      0.1071778413784076       0.10701246284230335      -0.10711228342894955     0.10711228342894955      -0.10701246284230335     -0.1071778413784076      -0.10707802079176146
0.13525863963521903       -3.0833734103985785E-5   1.4478996815298984E-5    0.027138837458899123     0.10853711935783444      0.10866045429425039      0.10845024537694256      -0.10857358031335856     0.10857358031335856      -0.10845024537694256     -0.10866045429425039     -0.10853711935783444
0.1481664914048599        -2.9814809495253025E-5   6.112878316107519E-6     0.030109567235425738     0.12039697795766077      0.12051623719564183      0.12036030068776406      -0.12047955992574513     0.12047955992574513      -0.12036030068776406     -0.12051623719564183     -0.12039697795766077
0.1524637795066579        -1.0607714959812154E-5   1.931756613681346E-5     0.03112458706493028      0.12453508552821195      0.12457751638805126      0.124419180131391        -0.12446161099123029     0.12446161099123029      -0.12441918013139097     -0.12457751638805126     -0.12453508552821195
0.15903799414833153       3.442515207726564E-7     -3.565610779363579E-6    0.032738564150863396     0.13094424827415707      0.13094287126807402      0.13096564193883317      -0.13096426493275012     0.13096426493275012      -0.13096564193883317     -0.13094287126807402     -0.13094424827415707
0.17049030012116756       4.236923891593094E-5     1.3773381567057158E-5    0.03567605666309838      0.14283028527492653      0.14266080831926284      0.14274764498552417      -0.14257816802986048     0.14257816802986048      -0.14274764498552417     -0.14266080831926284     -0.14283028527492653
0.176411826454074         1.589692579876992E-5     2.5812719700503352E-5    0.037162956560193666     0.14876105825147373      0.14869747054827867      0.1486061819332707       -0.14854259423007565     0.14854259423007565      -0.1486061819332707      -0.14869747054827867     -0.14876105825147373
0.17665252921113958       1.482085885336188E-5     2.630210397730037E-5     0.03722339721089592      0.14900213687322228      0.14894285343780886      0.14884432424935845      -0.14878504081394506     0.14878504081394506      -0.14884432424935845     -0.14894285343780886     -0.14900213687322228
0.18056609038683075       3.821872136048502E-6     -1.3536083814350182E-7   0.03826145058574801      0.15305304000474967      0.15303775251620552      0.15305385216977854      -0.1530385646812344      0.1530385646812344       -0.15305385216977854     -0.15303775251620552     -0.15305304000474967
0.18340690882831495       -1.5643251289671498E-5   1.977119197662169E-6     0.03903061343597425      0.15609709859891063      0.15615967160406935      0.15608523588372464      -0.15614780888888338     0.15614780888888338      -0.15608523588372464     -0.15615967160406935     -0.15609709859891063
0.18810888619923866       1.1281501340983026E-6    4.882627478985978E-6     0.04029220720907509      0.16118573301900552      0.16118122041846916      0.16115643725413153      -0.16115192465359524     0.16115192465359524      -0.16115643725413153     -0.16118122041846916     -0.16118573301900552
0.1923261292036771        1.617056096457136E-5     7.4886022651519685E-6    0.041423741262589124     0.16574977197908114      0.16568508973522286      0.16570484036549016      -0.16564015812163194     0.16564015812163194      -0.16570484036549016     -0.16568508973522286     -0.16574977197908114
0.20265583477374172       -5.9756409820055335E-6   -1.8641661823624997E-5   0.04445255082061712      0.17774232701503365      0.17776622957896163      0.17785417698597528      -0.17787807954990337     0.17787807954990337      -0.17785417698597528     -0.17776622957896163     -0.17774232701503365
0.20559835774622903       -1.5534764968865125E-5   6.219088900937409E-7     0.04529536999925666      0.1811522761937592       0.18121441525363463      0.18114854474041853      -0.18121068380029406     0.18121068380029406      -0.18114854474041853     -0.18121441525363463     -0.1811522761937592
0.20565516975606563       -1.5027142547633965E-5   9.404702245949942E-7     0.04531146590582767      0.18121863074888922      0.1812787393190797       0.18121298792754154      -0.18127309649773216     0.18127309649773216      -0.18121298792754154     -0.1812787393190797      -0.18121863074888922
0.20634364076958012       -8.875567839526714E-6    4.800925882856395E-6     0.04550652264017405      0.18202274220266573      0.18205824447402383      0.18199393664736851      -0.1820294389187267      0.1820294389187267       -0.18199393664736851     -0.18205824447402383     -0.18202274220266573
0.20646232258929773       -8.159943224580378E-6    4.511423597488911E-6     0.04554262545786436      0.1821677162158008       0.18220035598869908      0.18214064767421573      -0.18217328744711414     0.18217328744711414      -0.18214064767421573     -0.18220035598869908     -0.1821677162158008
0.2081090123259978        1.7692246257759904E-6    4.946294229336672E-7     0.04604354581363613      0.1841792055920649       0.18417212869356175      0.18417623781552717      -0.18416916091702418     0.18416916091702418      -0.18417623781552717     -0.18417212869356175     -0.1841792055920649
0.2192652982136841        1.984949149370353E-5     -4.866147085550625E-6    0.049390196155569444     0.19758588516400855      0.19750648719803368      0.19761508204652173      -0.19753568408054697     0.19753568408054697      -0.19761508204652173     -0.19750648719803368     -0.19758588516400855
0.22014264026270303       1.992032514386312E-5     6.364869190691829E-6     0.04965381213268391      0.19867418378859544      0.19859450248801996      0.1986359945734512       -0.19855631327287582     0.19855631327287582      -0.1986359945734512      -0.19859450248801996     -0.19867418378859544
0.2216227951160622        1.0799739340253451E-5    1.8798541010101402E-5    0.050135193375796236     0.20061876860489575      0.2005755696475347       0.20050597735883507      -0.2004627784014741      0.2004627784014741       -0.20050597735883507     -0.2005755696475347      -0.20061876860489575
0.22733744322515337       -1.982631431079787E-5    2.5010060122403373E-5    0.05196255329897449      0.20788559074764362      0.20796489600488677      0.20773553038690912      -0.20781483564415237     0.20781483564415237      -0.20773553038690912     -0.20796489600488677     -0.20788559074764362
0.2276036316792649        -1.8864908522219588E-5   2.443461587118721E-5     0.052045369073316444     0.20821705032383495      0.20829250995792378      0.20807044262860774      -0.20814590226269666     0.20814590226269666      -0.20807044262860774     -0.20829250995792378     -0.20821705032383495
0.231626550522467         -4.3351368394321246E-6   1.573789936950361E-5     0.05329696783340001      0.21322641475802973      0.21324375530538744      0.2131319873618126       -0.21314932790917038     0.21314932790917038      -0.2131319873618126      -0.21324375530538744     -0.21322641475802973
0.231917418722004         -1.8336294488145168E-6   1.3557728315597263E-5    0.05339560617301524      0.21361943061811017      0.2136267651359054       0.21353808424821646      -0.2135454187660118      0.2135454187660118       -0.21353808424821646     -0.2136267651359054      -0.21361943061811017
0.23464668707902758       2.1638461955270666E-5    -6.899206749143728E-6    0.054321147361532054     0.2173071687497914       0.21722061490197028      0.2173485639902862       -0.21726201014246516     0.21726201014246516      -0.2173485639902862      -0.21722061490197028     -0.2173071687497914
0.23814583258515515       1.8342660468235233E-5    -2.4882921587981652E-5   0.05549063173583475      0.22192456349951162      0.2218511928576386       0.22207386102903942      -0.22200049038716652     0.22200049038716652      -0.22207386102903942     -0.2218511928576386      -0.22192456349951162
0.2426895579815177        9.559947011067202E-6     -1.2903196444718438E-6   0.05696238378371094      0.22786478406993255      0.22782654428188823      0.22787252598779933      -0.2278342861997551      0.2278342861997551       -0.22787252598779933     -0.22782654428188823     -0.22786478406993255
0.24743002103224743       1.9361136972460873E-5    -3.3732393450167705E-6   0.058676155720689085     0.23473322543866626      0.23465578089077638      0.23475346487473625      -0.2346760203268465      0.2346760203268465       -0.23475346487473625     -0.23465578089077638     -0.23473322543866626
0.2504220626766006        2.5547361443547616E-5    -4.687917345705709E-6    0.0597578384486186       0.23906838476532444      0.2389661953195502       0.2390965122693986       -0.23899432282362448     0.23899432282362448      -0.2390965122693986      -0.2389661953195502      -0.23906838476532444
0.25358661971529767       2.3290960521863302E-6    -4.242037746199231E-6    0.06085819065715597      0.2434246947074897       0.24341537832328095      0.24345014693396683      -0.24344083054975815     0.24344083054975815      -0.24345014693396683     -0.24341537832328095     -0.2434246947074897
0.2536101085348014        2.1015304936331585E-6    -3.917615717121162E-6    0.060866346673863085     0.24345783690928832      0.24344943078731374      0.24348134260359094      -0.2434729364816165      0.2434729364816165       -0.24348134260359094     -0.24344943078731374     -0.24345783690928832
0.2537910780283211        -9.727856913757253E-7    -3.003266030893302E-6    0.06093234370355892      0.2437184194447603       0.24372231058752578      0.24373643904094558      -0.24374033018371116     0.24374033018371116      -0.24373643904094558     -0.24372231058752578     -0.2437184194447603
0.256614097374408         -4.5005311787714896E-5   8.016440188239536E-6     0.06195709228442513      0.24776240783468984      0.2479424290818407       0.24771430919356033      -0.2478943304407112      0.2478943304407112       -0.24771430919356033     -0.2479424290818407      -0.24776240783468984
0.2566380651847015        -4.537915379970362E-5    8.109998961939495E-6     0.06196579253638013      0.247796741834807        0.2479782584500058       0.24774808184103528      -0.24792959845623413     0.24792959845623413      -0.24774808184103528     -0.2479782584500058      -0.247796741834807
0.2698802538437355        -7.74497197830348E-6     2.264127050145121E-5     0.06693224907653222      0.26778143017367667      0.2678124100615899       0.2676455825506679       -0.26767656243858123     0.26767656243858123      -0.2676455825506679      -0.2678124100615899      -0.26778143017367667
0.2699390449661358        -8.505795263494869E-6    2.2521227883396354E-5    0.0669554860037364       0.2678724961080688       0.2679065192891228       0.26773736874076826      -0.2677713919218225      0.2677713919218225       -0.26773736874076826     -0.2679065192891228      -0.2678724961080688
0.2701141429768742        -1.0771760571205241E-5   2.2163704115062003E-5    0.06702469270643238      0.2681437184169323       0.2681868054592172       0.2680107361922418       -0.2680538232345268      0.2680538232345268       -0.2680107361922418      -0.2681868054592172      -0.2681437184169323
0.2773172317055569        -6.731877916385003E-7    -1.556590498185133E-5    0.0698582910165318       0.27938511997559845      0.27938781272676494      0.2794785154054894       -0.2794812081566561      0.2794812081566561       -0.2794785154054894      -0.27938781272676494     -0.27938511997559845
0.28726013592716965       2.121705699204899E-6     -2.0318275719606073E-6   0.07375737388361275      0.2950276434631335       0.2950191566403366       0.2950398344285652       -0.29503134760576843     0.29503134760576843      -0.2950398344285652      -0.2950191566403366      -0.2950276434631335
0.29085402780877917       -2.3998348633194E-5      3.832611491860012E-5     0.0753310987050608       0.3013913764677327       0.30148736986226543      0.301161419778221        -0.30125741317275384     0.30125741317275384      -0.301161419778221       -0.30148736986226543     -0.3013913764677327
0.29523147753104684       -6.657902606283929E-5    3.7291476692244007E-5    0.07721290332118569      0.30883032966269386      0.3090966457669452       0.30860658080254033      -0.30887289690679176     0.30887289690679176      -0.30860658080254033     -0.3090966457669452      -0.30883032966269386
0.30337278781528376       -8.320940989360213E-5    9.305233698454497E-5     0.0809808108908966       0.3240359817547529       0.32436881939432727      0.32347766773284553      -0.32381050537242        0.32381050537242         -0.32347766773284553     -0.32436881939432727     -0.3240359817547529
0.31070870280544094       -4.807301949183818E-5    8.124138984646058E-5     0.08417652395950859      0.3368536739685901       0.3370459660465574       0.33636622562951124      -0.3365585177074786      0.3365585177074786       -0.33636622562951124     -0.3370459660465574      -0.3368536739685901
0.3160996850459902        -2.2252156394724092E-5   7.25618173117586E-5      0.08652497434666462      0.34627307852580436      0.34636208715138317      0.3458377076219336       -0.3459267162475126      0.3459267162475126       -0.3458377076219336      -0.34636208715138317     -0.34627307852580436
0.3245296438888805        -7.407804488172299E-5    4.2245010661882726E-5    0.09050391431739876      0.36199423621181737      0.3622905483913441       0.3617407661478458       -0.3620370783273728      0.3620370783273728       -0.3617407661478458      -0.3622905483913441      -0.36199423621181737
0.32774730694211174       -3.9652285144537206E-5   2.1189150776429987E-5    0.09202804078633871      0.36809642602739523      0.36825503516797325      0.3679692911227364       -0.3681279002633146      0.3681279002633146       -0.3679692911227364      -0.36825503516797325     -0.36809642602739523
0.3299138651275037        -1.6472290747039333E-5   7.011548948456371E-6     0.09305428518241939      0.37220523079502893      0.37227111995801704      0.3721631615013381       -0.37222905066432627     0.37222905066432627      -0.3721631615013381      -0.37227111995801704     -0.37220523079502893
0.33256895118273855       -2.6848355605950364E-5   5.450188743299231E-5     0.09439031563240673      0.3776710714807141       0.3777784649031379       0.37734406015611605      -0.3774514535785399      0.3774514535785399       -0.37734406015611605     -0.3777784649031379      -0.3776710714807141
0.33656636021901787       -5.4684098342840456E-5   2.473653255921686E-5     0.09644990304816232      0.3857644535936414       0.38598318998701264      0.38561603439828596      -0.3858347707916573      0.3858347707916573       -0.38561603439828596     -0.38598318998701264     -0.3857644535936414
0.33888104021882937       -6.808111473616279E-5    3.093875458499919E-5     0.09762399852551257      0.39045264813633307      0.3907249725952776       0.3902670156088229       -0.3905393400677676      0.3905393400677676       -0.3902670156088229      -0.3907249725952776      -0.39045264813633307
0.3418844294029627        -8.546427531932633E-5    3.8986383869109645E-5    0.09914743401469495      0.39653576665974866      0.39687762376102587      0.3963018483565338       -0.39664370545781114     0.39664370545781114      -0.3963018483565338      -0.39687762376102587     -0.39653576665974866
0.3446384823794863        -5.195459354785719E-5    7.215226176776135E-5     0.10053540706721162      0.40225417586705425      0.40246199424124557      0.40182126229644743      -0.4020290806706389      0.4020290806706389       -0.40182126229644743     -0.40246199424124557     -0.40225417586705425
0.35                      -3.1006815334998685E-6   8.969177750334473E-7     0.10330199645658915      0.41320447521661485      0.4132168779427488       0.41319909370996455      -0.41321149643609856     0.41321149643609856      -0.41319909370996455     -0.4132168779427488      -0.41320447521661485
0.350493971187869         -3.021491694207466E-6    8.832165135528528E-6     0.10308115675414321      0.41234508052859115      0.41235716649536797      0.41229208753777785      -0.4123041735045548      0.4123041735045548       -0.41229208753777785     -0.41235716649536797     -0.41234508052859115
0.3506007521835112        -3.0043733478503368E-6   1.0547515412285258E-5    0.10303341817366801      0.4121593064942134       0.41217132398760475      0.4120960214017395       -0.412108038895131       0.412108038895131        -0.4120960214017395      -0.41217132398760475     -0.4121593064942134
0.37077032731402987       -3.0464966946968375E-5   3.3282544542438956E-5    0.0940524933990571       0.3762488912959619       0.3763707511637497       0.3760491960287072       -0.37617105589649497     0.37617105589649497      -0.3760491960287072      -0.3763707511637497      -0.3762488912959619
0.37288542947223413       -1.488934071708042E-5    2.571904815364607E-5     0.09311044400051458      0.37248915446508524      0.37254871182795346      0.37233484017616325      -0.37239439753903153     0.37239439753903153      -0.37233484017616325     -0.37254871182795346     -0.37248915446508524
0.3747482956284004        -3.00519711911609E-7     1.856284983129773E-5     0.09227283620590968      0.369146432333709        0.3691476344125565       0.369035055234721        -0.36903625731356865     0.36903625731356865      -0.369035055234721       -0.3691476344125565      -0.369146432333709
0.37700555218301635       2.288497001429195E-5     1.559005775796961E-5     0.09136951860486953      0.3655706145327807       0.36547907465272345      0.3654770741862328       -0.3653855343061756      0.3653855343061756       -0.3654770741862328      -0.36547907465272345     -0.3655706145327807
0.3779101616337719        3.023980006229493E-5     1.9687722047763996E-5    0.0910067075832324       0.36414637309919756      0.3640254138989484       0.3640282467669109       -0.36390728756666174     0.36390728756666174      -0.3640282467669109      -0.3640254138989484      -0.36414637309919756
0.3803983427117881        2.7057085968432814E-5    1.8733735304024386E-5    0.090000355737897        0.360111738329437        0.3600035099855632       0.35999933591761285      -0.35989110757373904     0.35989110757373904      -0.35999933591761285     -0.3600035099855632      -0.360111738329437
0.398793173116903         3.527654568995E-6        1.1681023379292275E-5    0.08256051476877503      0.3302841574543761       0.3302700468361          0.3302140713141003       -0.3301999606958243      0.3301999606958243       -0.3302140713141003      -0.3302700468361         -0.3302841574543761
0.4113576340117313        1.8115216768046274E-5    3.8582767939456726E-5    0.07810009661904552      0.3125523652135366       0.3124799043464643       0.3123208686058998       -0.3122484077388275      0.3122484077388275       -0.3123208686058998      -0.3124799043464643      -0.3125523652135366
0.4147722412771651        2.1836257545126975E-5    4.574095294936034E-5     0.07688813441148268      0.3077334330198691       0.30764608798968845      0.3074589873021729       -0.3073716422719923      0.3073716422719923       -0.3074589873021729      -0.30764608798968845     -0.3077334330198691
0.41606661738751327       2.324679349057569E-5     4.8454408099551704E-5    0.0764287155658677       0.30590671907475053      0.3058137319007882       0.3056159926261532       -0.30552300545219085     0.30552300545219085      -0.3056159926261532      -0.3058137319007882      -0.30590671907475053
0.41638152128096095       1.9548540856816287E-5    5.0566518608624364E-5    0.07631576067699074      0.30545383934550246      0.3053756451820751       0.30515044023385063      -0.3050722460704234      0.3050722460704234       -0.30515044023385063     -0.3053756451820751      -0.30545383934550246
0.4167350670287718        1.796513895757597E-5     4.721843570672968E-5     0.07618978490846479      0.3049367252188944       0.3048648646630641       0.30465341460465406      -0.30458155404882375     0.30458155404882375      -0.30465341460465406     -0.3048648646630641      -0.3049367252188944
0.41932804075274166       3.951395598928314E-6     2.4854993471653565E-5    0.07525523971966452      0.3011034266502709       0.30108762106787523      0.30095429668944096      -0.3009384911070453      0.3009384911070453       -0.30095429668944096     -0.30108762106787523     -0.3011034266502709
0.4230573663129426        -1.6203768650668824E-5   -7.309064332087286E-6    0.0739111369130924       0.295590212922072        0.2956550279966747       0.2956340673080645       -0.29569888238266717     0.29569888238266717      -0.2956340673080645      -0.2956550279966747      -0.295590212922072
0.4258299290901783        -3.066427898448929E-5    1.7968969264967537E-5    0.07304172327817736      0.29215947146253535      0.2922821285784733       0.29205165764694546      -0.2921743147628834      0.2921743147628834       -0.29205165764694546     -0.2922821285784733      -0.29215947146253535