% Model:              Cylinder_potential.mph
% Version:            COMSOL 6.2.0.415
% Date:               Nov 25 2024, 19:16
% Dimension:          1
% Nodes:              1056
% Expressions:        11
% Description:        Line graph
% Arc length (m)          Magnetic scalar potential Magnetic scalar potential Magnetic scalar potential Magnetic scalar potential Magnetic scalar potential Magnetic scalar potential Magnetic scalar potential Magnetic scalar potential Magnetic scalar potential Magnetic scalar potential Magnetic scalar potential
0                         -2.034683355123627E-7    4.0264279752112616E-4    -0.0026381385670862802   -0.00934503281245277     -0.009344218939110718    -0.011760889597579528    0.011760075724237477     -0.011760075724237477    0.01176088959757953      0.009344218939110718     0.00934503281245277
0.001750736757766047      -2.2948678128211057E-7   4.0373662098709803E-4    -0.0026427657206405464   -0.009360311993163457    -0.009359394046038328    -0.011782731719086045    0.011781813771960917     -0.011781813771960917    0.011782731719086047     0.009359394046038328     0.009360311993163457
0.0030928538271868256     -2.4053226749474423E-7   4.0456851935202233E-4    -0.00264642446930742     -0.009372473383708604    -0.009371511254638623    -0.011799884499820737    0.01179892237075076      -0.01179892237075076     0.01179988449982074      0.009371511254638623     0.009372473383708604
0.009745104928584158      -2.952796136820411E-7    4.086918532551573E-4     -0.0026645591875100964   -0.00943275174950228     -0.00943157063104755     -0.011884902869033223    0.011883721750578497     -0.011883721750578497    0.011884902869033227     0.00943157063104755      0.00943275174950228
0.013254340510098217      -3.6914569376655427E-7   4.1086551776819497E-4    -0.002674097339628128    -0.009464531096595464    -0.009463054513820396    -0.011929724203204633    0.01192824762042957      -0.01192824762042957     0.011929724203204636     0.009463054513820396     0.009464531096595464
0.015218567886660317      -3.0911035855979584E-7   4.120965690575354E-4     -0.0026794043778765255   -0.00948194602505062     -0.009480709583616376    -0.01195452543939583     0.011953288997961593     -0.011953288997961593    0.011954525439395833     0.009480709583616376     0.00948194602505062
0.01677743699175993       -2.6146453588934875E-7   4.130735678737848E-4     -0.0026836162008374133   -0.00949576702880008     -0.009494721170656521    -0.011974208436042789    0.011973162577899233     -0.011973162577899233    0.01197420843604279      0.009494721170656521     0.00949576702880008
0.02206717260465263       -2.428472145556697E-7    4.1652494834567796E-4    -0.0026979248391758234   -0.009542610206095377    -0.009541638817237151    -0.012041759896169443    0.012040788507311221     -0.012040788507311221    0.012041759896169443     0.00954163881723715      0.009542610206095377
0.026907123109914277      -4.288359685053145E-7    4.197562941172161E-4     -0.0027115648706963116   -0.009587848272370613    -0.00958613292849659     -0.01210638603707391     0.012104670693199888     -0.012104670693199888    0.01210638603707391      0.00958613292849659      0.009587848272370613
0.029969418775178225      -4.699285334103608E-7    4.217538489477863E-4     -0.0027201392583271443   -0.00961623534353204     -0.009614355629398396    -0.012146758437218758    0.012144878723085117     -0.012144878723085117    0.012146758437218762     0.009614355629398396     0.00961623534353204
0.034472892518174536      -5.303600878097031E-7    4.2469149335348853E-4    -0.0027327489256416806   -0.009657981942681883    -0.009655860502330641    -0.012206130902802814    0.012204009462451575     -0.012204009462451575    0.012206130902802814     0.00965586050233064      0.009657981942681883
0.04238360845153921       -2.282140361121534E-7    4.2990963432979406E-4    -0.0027547709177685588   -0.009729811196157082    -0.00972889834001263     -0.012309269002135848    0.012308356145991399     -0.012308356145991399    0.01230926900213585      0.00972889834001263      0.009729811196157082
0.04537811190974139       -2.394518475686542E-7    4.3193033182648574E-4    -0.0027634461536848415   -0.00975847252295505     -0.009757514715564772    -0.012350054513913966    0.01234909670652369      -0.01234909670652369     0.012350054513913968     0.009757514715564772     0.00975847252295505
0.05209872890602929       -2.6467306628816877E-7   4.3646541890525524E-4    -0.002782916138862545    -0.009822797644866994    -0.00982173895260184     -0.012441590158298526    0.012440531466033376     -0.012440531466033376    0.01244159015829853      0.00982173895260184      0.009822797644866994
0.0556914445262513        -3.242114297225391E-7    4.3888825413188396E-4    -0.002793295368353106    -0.00985716513387622     -0.009855868288157328    -0.012490494658667525    0.012489197812948636     -0.012489197812948636    0.012490494658667526     0.009855868288157328     0.00985716513387622
0.0570919033769417        -2.7513734074009594E-7   4.3984294334156537E-4    -0.0027973186008291833   -0.009870295847973519    -0.009869195298610555    -0.012509353508022913    0.012508252958659954     -0.012508252958659954    0.012509353508022915     0.009869195298610555     0.009870295847973519
0.05929835077896661       -1.978202556371237E-7    4.4134707288125455E-4    -0.0028036572739292215   -0.0098909835175844      -0.009890192236561849    -0.012539065954871927    0.012538274673849381     -0.012538274673849381    0.01253906595487193      0.009890192236561849     0.0098909835175844
0.06315755652953259       -2.0031554836899855E-7   4.441057692323901E-4     -0.0028147780761037704   -0.009927195627814654    -0.009926394365621174    -0.012591830243208993    0.01259102898101552      -0.01259102898101552     0.012591830243208998     0.009926394365621174     0.009927195627814654
0.07397067352222675       -1.506531457729064E-7    4.517001067950311E-4     -0.0028466840075058427   -0.010031937015929826    -0.010031334403346732    -0.012742137656700016    0.012741535044116925     -0.012741535044116925    0.012742137656700016     0.01003133440334673      0.010031937015929826
0.07605249896631494       -1.4109175349268313E-7   4.531622277708407E-4     -0.0028528267857496226   -0.010052102643192956    -0.010051538276178983    -0.012771076009818005    0.012770511642804034     -0.012770511642804034    0.012771076009818005     0.010051538276178981     0.010052102643192956
0.07761932775197766       -8.486312044814996E-8    4.5429003822536384E-4    -0.0028574534113215157   -0.010067113256850871    -0.010066773804369078    -0.012792853486203057    0.012792514033721265     -0.012792514033721265    0.012792853486203059     0.010066773804369076     0.010067113256850871
0.0888305648579295        -1.4323466032502402E-7   4.6250226277657063E-4    -0.002891590268967701    -0.010179140756861743    -0.010178567818220442    -0.01295415433352117     0.012953581394879872     -0.012953581394879872    0.012954154333521171     0.01017856781822044      0.010179140756861743
0.09133629812312183       -1.5628081284393826E-7   4.6433771091175123E-4    -0.00289921992294476     -0.010204179120669475    -0.010203553997418097    -0.012990205386139986    0.01298958026288861      -0.01298958026288861     0.012990205386139988     0.010203553997418097     0.010204179120669475
0.09263950416188793       -1.8885340815365683E-7   4.653231826426493E-4     -0.002903112917278203    -0.010216859828001173    -0.010216104414368557    -0.013008798923857071    0.013008043510224459     -0.013008043510224459    0.013008798923857073     0.010216104414368557     0.010216859828001173
0.09522662499206347       -1.0900087525861751E-7   4.673079018344085E-4     -0.002911042954309422    -0.01024246611348498     -0.010242030109983945    -0.013046313524491437    0.013045877520990403     -0.013045877520990403    0.013046313524491437     0.010242030109983945     0.01024246611348498
0.09647478985286684       -7.252062502642405E-8    4.682436659795167E-4     -0.0029148834215539333   -0.010254947729527238    -0.01025465764702713     -0.01306440972540434     0.013064119642904236     -0.013064119642904236    0.013064409725404343     0.01025465764702713      0.010254947729527238
0.10898222535991087       -1.5606679818723507E-7   4.7769190503218497E-4    -0.0029537511361031037   -0.010382240962912237    -0.010381616695719487    -0.013248392393105348    0.0132477681259126       -0.0132477681259126      0.013248392393105352     0.010381616695719487     0.010382240962912237
0.11452748223261033       -1.583758482368301E-7    4.820310958309559E-4     -0.0029715002242320983   -0.010440224361132004    -0.010439590857739054    -0.01333241093611774     0.013331777432724793     -0.013331777432724793    0.013332410936117742     0.010439590857739054     0.010440224361132004
0.12167681090261717       -1.613528352545649E-7    4.876254807069776E-4     -0.002994383576174159    -0.010514980568246216    -0.010514335156905195    -0.013440733452488082    0.013440088041147064     -0.013440088041147064    0.013440733452488085     0.010514335156905193     0.010514980568246214
0.12475919308323635       -1.321637509838685E-7    4.90066328635973E-4      -0.003004086645931176    -0.010546411925318758    -0.010545883270314822    -0.013486809897134598    0.013486281242130662     -0.013486281242130662    0.013486809897134602     0.01054588327031482      0.010546411925318758
0.1254100579917541        -1.188205557839344E-7    4.905853483003757E-4     -0.0030061083485586164   -0.010552914990444908    -0.01055243970822177     -0.013496427080247163    0.013495951798024028     -0.013495951798024028    0.013496427080247167     0.01055243970822177      0.010552914990444907
0.1259260412281935        -1.0501076323678242E-7   4.910107898190089E-4     -0.0030077591746132054   -0.010558214350522272    -0.010557794307469323    -0.013504279089436327    0.01350385904638338      -0.01350385904638338     0.01350427908943633      0.010557794307469323     0.010558214350522272
0.12945533027416434       -1.372783329109851E-7    4.939408890632535E-4     -0.003019158978982178    -0.010595087805404777    -0.010594538692073132    -0.013558733139784297    0.013558184026452653     -0.013558184026452653    0.0135587331397843       0.010594538692073132     0.010595087805404775
0.132576447533316         -1.3950021091360616E-7   4.964537596506106E-4     -0.0030293306848226394   -0.010628240460760557    -0.0106276824599169      -0.013606963018664223    0.013606405017820566     -0.013606405017820566    0.013606963018664223     0.0106276824599169       0.010628240460760555
0.14183789062359686       -1.460932976085973E-7    5.039103227995312E-4     -0.0030595136824323223   -0.010726615947925917    -0.010726031574735482    -0.013750077884723105    0.013749493511532672     -0.013749493511532672    0.013750077884723105     0.010726031574735482     0.010726615947925917
0.14399472212338704       -7.146066659843843E-8    5.057713194884945E-4     -0.003066588186378375    -0.010749181708381217    -0.01074889586571482     -0.013783809625312183    0.01378352378264579      -0.01378352378264579     0.013783809625312185     0.01074889586571482      0.010749181708381217
0.15004602310395043       4.078129150264258E-8     5.10864618933155E-4      -0.0030870558055709155   -0.010815547802901195    -0.010815710928067204    -0.013880735516500126    0.01388089864166614      -0.01388089864166614     0.013880735516500126     0.010815710928067204     0.010815547802901195
0.15554817110953434       9.513976309858413E-8     5.154701494389805E-4     -0.003105556488163381    -0.010875625224810385    -0.010876005783862778    -0.01396844612144427     0.013968826680496666     -0.013968826680496666    0.013968446121444272     0.01087600578386278      0.010875625224810385
0.16670029992789392       -1.6917690294494008E-7   5.251401993929988E-4     -0.003143652145248894    -0.010999526336622469    -0.010998849629010689    -0.014150367532980464    0.014149690825368684     -0.014149690825368684    0.014150367532980466     0.010998849629010689     0.010999526336622469
0.17063514101633626       -2.6559702886377144E-7   5.285474388396904E-4     -0.003157002542216682    -0.011042899046405385    -0.011041836658289927    -0.01421418367944353     0.014213121291328075     -0.014213121291328075    0.01421418367944353      0.011041836658289927     0.011042899046405385
0.17222087737483394       -3.044542268862006E-7    5.299205523533711E-4     -0.0031623827365870162   -0.011060378197741725    -0.011059160380834179    -0.014239901511861955    0.014238683694954412     -0.014238683694954412    0.014239901511861955     0.011059160380834179     0.011060378197741725
0.17413678992682713       -2.778401761190447E-7    5.31654239435251E-4      -0.003169059527314266    -0.011081831071303548    -0.011080719710599068    -0.014271756507915057    0.014270645147210582     -0.014270645147210582    0.014271756507915057     0.011080719710599068     0.011081831071303548
0.175011293195112         -2.656924012354918E-7    5.32445567315905E-4      -0.0031721070961119955   -0.011091623067302738    -0.011090560297697793    -0.014286296471198171    0.014285233701593233     -0.014285233701593233    0.014286296471198171     0.011090560297697793     0.011091623067302738
0.18690387271718478       8.218190465760529E-8     5.430921097737826E-4     -0.003213994201337356    -0.011226536112218757    -0.011226864839837387    -0.014485088770861458    0.014485417498480091     -0.014485417498480091    0.014485088770861458     0.011226864839837387     0.011226536112218757
0.18907549488912756       1.4823419194932378E-7    5.450073567402323E-4     -0.003221770318384229    -0.011251762734932315    -0.01125235567170011     -0.014521806875373716    0.014522399812141512     -0.014522399812141512    0.014521806875373716     0.01125235567170011      0.011251762734932315
0.18938020117295173       1.5750217017260563E-7    5.452760903133616E-4     -0.0032228614067690083   -0.011255302351795598    -0.011255932360476287    -0.014526958893675774    0.014527588902356465     -0.014527588902356465    0.014526958893675774     0.011255932360476287     0.011255302351795598
0.18971053387252712       1.4972039468386358E-7    5.455854784369829E-4     -0.003224033893304694    -0.011259079697118458    -0.011259678578697191    -0.014532592567740359    0.014533191449319095     -0.014533191449319095    0.014532592567740359     0.011259678578697191     0.011259079697118458
0.19351008771774159       6.021283149423137E-8     5.491441235129311E-4     -0.0032375200717267953   -0.011302527490705396    -0.011302768342031373    -0.014597392231782986    0.014597633083108966     -0.014597633083108966    0.014597392231782986     0.011302768342031373     0.011302527490705398
0.19669974250230182       -1.7741606680510718E-8   5.520424286817593E-4     -0.003248779344999032    -0.011339025577164208    -0.011338954610737487    -0.014651280149254771    0.01465120918282805      -0.01465120918282805     0.014651280149254771     0.011338954610737487     0.011339025577164211
0.19900660883853893       5.639036983045154E-8     5.540564800860087E-4     -0.003257238567252853    -0.011366672048013721    -0.011366897609493044    -0.014691010928529778    0.014691236490009101     -0.014691236490009101    0.014691010928529778     0.011366897609493044     0.011366672048013724
0.2007716365645844        1.2211295735995296E-7    5.557057031494395E-4     -0.0032637031352158955   -0.01138745120550054     -0.01138793965732998     -0.014721685424397179    0.01472217387622662      -0.01472217387622662     0.014721685424397179     0.01138793965732998      0.011387451205500542
0.20101315769764128       1.3110624033976872E-7    5.559313779176401E-4     -0.0032645877274271773   -0.011390294563475104    -0.011390818988436463    -0.01472588283098095     0.01472640725594231      -0.01472640725594231     0.01472588283098095      0.011390818988436463     0.011390294563475107
0.20511531777505243       6.244640229397295E-8     5.599885858607588E-4     -0.003279483536141594    -0.01143784349417951     -0.01143809327978868     -0.014797775009344066    0.014798024794953244     -0.014798024794953244    0.014797775009344066     0.01143809327978868      0.01143784349417951
0.20551208654116548       5.580549147896756E-8     5.603810067704935E-4     -0.0032809242872415866   -0.011442442517671906    -0.011442665739637817    -0.014804728558294868    0.014804951780260787     -0.014804951780260787    0.01480472855829487      0.011442665739637817     0.011442442517671906
0.20972448335118266       -2.9365994367097493E-8   5.644111282081233E-4     -0.003296090509614733    -0.011491187385823292    -0.011491069921845823    -0.014877654155072036    0.01487753669109457      -0.01487753669109457     0.014877654155072036     0.011491069921845823     0.011491187385823292
0.21985707478298222       -1.93679891743791E-8     5.745766903048624E-4     -0.00333402602869855     -0.011612412779857959    -0.011612335307901258    -0.015059872921687135    0.01505979544973044      -0.01505979544973044     0.015059872921687137     0.011612335307901258     0.011612412779857959
0.2240896019989851        -2.1318111708790247E-8   5.787661325657466E-4     -0.0033498179809260805   -0.011663016162230496    -0.011662930889783658    -0.015135612957624979    0.015135527685178146     -0.015135527685178146    0.015135612957624979     0.011662930889783658     0.011663016162230496
0.23276408312057484       -3.018759823988892E-8    5.870264466214537E-4     -0.0033823478232870036   -0.011768372328480131    -0.01176825157808717     -0.015290531008208859    0.0152904102578159       -0.0152904102578159      0.015290531008208859     0.01176825157808717      0.011768372328480131
0.2335327439760022        -3.588404994899096E-8    5.877591432509973E-4     -0.0033852150172229384   -0.011777654407238656    -0.011777510871038859    -0.015304209266744646    0.01530406573054485      -0.01530406573054485     0.015304209266744646     0.011777510871038859     0.011777654407238656
0.23380215503453106       -4.65093779824489E-8     5.880419610596622E-4     -0.003386249930283194    -0.01178096685670975     -0.011780780819197818    -0.015309218623067729    0.0153090325855558       -0.0153090325855558      0.015309218623067729     0.011780780819197818     0.01178096685670975
0.2541720974369941        4.5081784590516E-8       6.093357156592001E-4     -0.0034657035527449745   -0.012034716900433116    -0.012034897227571477    -0.01569073119438832     0.015690911521526685     -0.015690911521526685    0.01569073119438832      0.012034897227571477     0.012034716900433116
0.257341004600822         5.755033831227155E-8     6.12529295183751E-4      -0.0034781240895950744   -0.012074793372152417    -0.012075023573505664    -0.015749969143254928    0.015750199344608175     -0.015750199344608175    0.015749969143254928     0.012075023573505664     0.012074793372152417
0.26148194526388724       -5.8783434499795196E-8   6.171022895802828E-4     -0.003494815295315022    -0.012128071879388238    -0.012127836745650237    -0.01583068561686994     0.01583045048313194      -0.01583045048313194     0.01583068561686994      0.012127836745650237     0.012128071879388238
0.2646176793645756        -1.4687737453671576E-7   6.205651970784177E-4     -0.0035074547381895547   -0.012168417116272038    -0.012167829606773891    -0.01589180829874255     0.015891220789244404     -0.015891220789244404    0.01589180829874255      0.012167829606773891     0.012168417116272038
0.2661144881873687        -1.8186473698974433E-7   6.221658361674244E-4     -0.0035134831491136767   -0.012187798817426413    -0.012187071358478452    -0.01592079383443096     0.015920066375483002     -0.015920066375483002    0.01592079383443096      0.012187071358478452     0.012187798817426413
0.2679518705213064        -1.4737444871655273E-7   6.242071374854064E-4     -0.0035209152896348277   -0.012211334494980524    -0.012210744997185658    -0.015956577319892966    0.015955987822098103     -0.015955987822098103    0.015956577319892966     0.012210744997185658     0.012211334494980524
0.2789365286453971        5.882325890504502E-8     6.364109105881088E-4     -0.003565347807161047    -0.01235204085036205     -0.012352276143397671    -0.01617050631389071     0.01617074160692633      -0.01617074160692633     0.01617050631389071      0.012352276143397671     0.01235204085036205
0.28383743709662235       6.874690775968721E-8     6.418332158261496E-4     -0.003585971511429623    -0.012418248904424525    -0.012418523892055562    -0.016269248199381425    0.01626952318701247      -0.01626952318701247     0.016269248199381425     0.012418523892055562     0.012418248904424525
0.2898268155316934        8.087455491709333E-8     6.484597909569245E-4     -0.003611175648749636    -0.012499161473017936    -0.012499484971237606    -0.01638992021875949     0.01639024371697916      -0.01639024371697916     0.01638992021875949      0.012499484971237606     0.012499161473017936
0.2961462176468499        2.105233924897232E-8     6.558681165369346E-4     -0.0036376439917386533   -0.012582929512665311    -0.012583013722022307    -0.016518138211886926    0.01651822242124392      -0.01651822242124392     0.016518138211886926     0.012583013722022307     0.012582929512665311
0.3003779762071168        -1.1584428912912155E-7   6.607615616092887E-4     -0.003655326226725028    -0.012639251910650505    -0.012638788533493988    -0.016603821280306245    0.016603357903149728     -0.016603357903149728    0.016603821280306245     0.012638788533493988     0.012639251910650505
0.30523674118583477       -1.0605650049146026E-7   6.66395697429227E-4      -0.0036763474756194526   -0.012706414923191113    -0.012705990697189147    -0.01670478910776648     0.016704364881764515     -0.016704364881764515    0.01670478910776648      0.012705990697189147     0.012706414923191113
0.3121639919932304        -2.7798032092369398E-8   6.745441887125031E-4     -0.0037062642827700738   -0.012801480161006972    -0.012801368968878603    -0.016848745293281994    0.016848634101153625     -0.016848634101153625    0.016848745293281998     0.012801368968878603     0.012801480161006972
0.3211155341978371        -4.9618127544307315E-8   6.85993867161998E-4      -0.0037455705578314713   -0.012924399866094984    -0.012924201393584803    -0.017040363069066977    0.017040164596556797     -0.017040164596556797    0.017040363069066977     0.012924201393584803     0.012924399866094984
0.3242340215107733        -5.513741802335641E-8    6.899719096192542E-4     -0.003759200728036596    -0.012966997458124671    -0.012966776908452576    -0.0171068289158402      0.01710660836616811      -0.01710660836616811     0.017106828915840203     0.012966776908452576     0.012966997458124671
0.3253095170437805        -1.0767426188702323E-7   6.913705334549388E-4     -0.0037640183981263267   -0.012982177340664267    -0.012981746643616714    -0.017130400541393902    0.017129969844346355     -0.017129969844346355    0.017130400541393906     0.012981746643616714     0.012982177340664267
0.3333100513735605        -1.1185418057769421E-7   7.009690105621875E-4     -0.0037999445668283113   -0.01309709494398784     -0.013096647527265526    -0.01730290900736097     0.017302461590638658     -0.017302461590638658    0.01730290900736097      0.013096647527265526     0.01309709494398784
0.33528257333065725       -1.1288473442027626E-7   7.03335503357333E-4      -0.003808802119796398    -0.013125427738582437    -0.013124976199644752    -0.01734544075872644     0.017344989219788755     -0.017344989219788755    0.01734544075872644      0.013124976199644752     0.013125427738582437
0.3493180731117076        9.856297948888694E-8     7.219924281512509E-4     -0.0038732907296212893   -0.013326988508072428    -0.013327382759990382    -0.01765894307697994     0.017659337328897892     -0.017659337328897892    0.01765894307697994      0.013327382759990382     0.013326988508072428
0.3590444890235207        -2.1281749222503487E-7   7.351627807905175E-4     -0.003919037991739139    -0.013471089259569457    -0.013470237989600556    -0.017882065944312568    0.017881214674343667     -0.017881214674343667    0.017882065944312568     0.013470237989600554     0.013471089259569457
0.3601561328955114        -1.9468367503571026E-7   7.365560755252674E-4     -0.003924278710400309    -0.013487835982375504    -0.01348705724767536     -0.017907172435527113    0.017906393700826972     -0.017906393700826972    0.017907172435527113     0.01348705724767536      0.013487835982375504
0.3608379748058863        -1.8356105126536493E-7   7.374106718286285E-4     -0.003927493176573967    -0.013498107812912516    -0.013497373568707453    -0.01792257184388429     0.017921837599679233     -0.017921837599679233    0.01792257184388429      0.013497373568707453     0.013498107812912516
0.36370485318742296       -9.210683943044548E-8    7.41375282673499E-4      -0.003941307498704383    -0.013541288360475896    -0.013540919933118173    -0.017989540056516897    0.017989171629159174     -0.017989171629159174    0.017989540056516897     0.013540919933118173     0.013541288360475896
0.36644135571484604       -4.811653334833992E-9    7.45159596534564E-4      -0.003954493592564512    -0.013582505203961027    -0.013582485957347686    -0.01805346278316842     0.01805344353655508      -0.01805344353655508     0.01805346278316842      0.013582485957347686     0.013582505203961027
0.37264954765012415       1.7921092614004668E-7    7.537145088262889E-4     -0.00398412197160487     -0.013674985938088333    -0.013675702781792892    -0.018197272991046076    0.018197989834750634     -0.018197989834750634    0.018197272991046076     0.013675702781792892     0.013674985938088333
0.37484521561417705       1.1174315949609755E-7    7.568100113820622E-4     -0.003994906837040196    -0.013708973827695608    -0.01370942080033359     -0.018249833895987985    0.01825028086862597      -0.01825028086862597     0.018249833895987985     0.013709420800333588     0.013708973827695608
0.3863142293812194        -2.406729421820033E-7    7.72979287433503E-4      -0.004051241297522615    -0.013886508673674313    -0.013885545981905585    -0.018524384398275334    0.018523421706506612     -0.018523421706506612    0.018524384398275334     0.013885545981905584     0.013886508673674313
0.386928538815722         -2.495586101172333E-7    7.73855349732039E-4      -0.004054237068946654    -0.013895881343810734    -0.013894883109370263    -0.018539013442202972    0.018538015207762507     -0.018538015207762507    0.018539013442202972     0.013894883109370263     0.013895881343810734
0.39221130190981235       7.327018301024036E-8     7.817212743175048E-4     -0.004080088092323686    -0.013975042005976206    -0.013975335086708243    -0.018665369651881238    0.018665662732613282     -0.018665662732613282    0.018665369651881238     0.013975335086708243     0.013975042005976206
0.39445449262551735       7.933091437031893E-8     7.850973624797139E-4     -0.00409115383716143     -0.014009164599377837    -0.014009481923035316    -0.018719748774256122    0.018720066097913608     -0.018720066097913608    0.018719748774256122     0.014009481923035316     0.014009164599377837
0.3971590676853811        5.409159589614661E-8     7.891213470380433E-4     -0.004104962642043632    -0.014052378343868605    -0.014052594710252187    -0.018787106426096864    0.018787322792480455     -0.018787322792480455    0.018787106426096864     0.014052594710252187     0.014052378343868605
0.4037188983149185        -7.125286878718687E-9    7.988813487293414E-4     -0.004138455305112164    -0.014157191424834386    -0.014157162923686871    -0.018950479517210433    0.018950451016062922     -0.018950451016062922    0.018950479517210433     0.014157162923686871     0.014157191424834386
0.40618749285029687       -5.432212356308151E-8    8.02598650818914E-4      -0.004151104580128699    -0.014196731012305178    -0.014196513723810925    -0.01901232291721866     0.01901210562872441      -0.01901210562872441     0.01901232291721866      0.014196513723810925     0.014196731012305178
0.4065474350069651        -7.291552573672518E-9    8.031439705941054E-4     -0.004152939664063611    -0.014202341327577278    -0.01420231216136698     -0.019021205151141904    0.019021175984931613     -0.019021175984931613    0.019021205151141904     0.01420231216136698      0.014202341327577278
0.40683823483291937       -4.900777062767799E-9    8.036194892597644E-4     -0.004154451128689946    -0.014206955848534616    -0.014206936245426363    -0.0190286727840932      0.01902865318098495      -0.01902865318098495     0.0190286727840932       0.014206936245426363     0.014206955848534616
0.41001474079994127       1.2876683844873405E-7    8.086596580463988E-4     -0.004170715497185249    -0.014256625480924903    -0.014257140548278696    -0.019108583429203296    0.019109098496557092     -0.019109098496557092    0.019108583429203296     0.014257140548278696     0.014256625480924903
0.4135691437026283        7.744737678506847E-8     8.141466867649071E-4     -0.004189271605976689    -0.014314491468858468    -0.014314801258365607    -0.01919937158944791     0.01919968137895505      -0.01919968137895505     0.01919937158944791      0.014314801258365607     0.014314491468858468
0.4238123876421467        -7.044743960401922E-8    8.299594618513595E-4     -0.0042427474651077065   -0.014481252369755953    -0.014480970579997537    -0.019461009140864113    0.019460727351105697     -0.019460727351105697    0.019461009140864113     0.014480970579997537     0.014481252369755953
0.42541831394996743       -2.0463170362751762E-7   8.325158442755889E-4     -0.004251086410739344    -0.014507207373537861    -0.014506388846723351    -0.019502302439191398    0.01950148391237689      -0.01950148391237689     0.019502302439191398     0.014506388846723351     0.014507207373537861