% Model:              Cylinder_potential.mph
% Version:            COMSOL 6.2.0.339
% Date:               Apr 30 2024, 08:06
% Dimension:          1
% Nodes:              483
% Expressions:        11
% Description:        Line graph
% Arc length (m)          Magnetic scalar potential Magnetic scalar potential Magnetic scalar potential Magnetic scalar potential Magnetic scalar potential Magnetic scalar potential Magnetic scalar potential Magnetic scalar potential Magnetic scalar potential Magnetic scalar potential Magnetic scalar potential
0                         8.562820914942513E-6     -1.1742417937593574E-5   1.5356620163464371E-6    -1.1958963917485337E-5   -4.621024757724742E-5    5.849554370803865E-5     -2.424426004827055E-5    2.424426004827055E-5     -5.8495543708033445E-5   4.621024757724742E-5     1.1958963917484307E-5
0.005138195500639876      0.0016987939054790065    -9.175407546964646E-4    -3.8131415655709867E-4   -8.802910793597549E-4    -0.0076754667012757655   0.004624953448818993     0.002170222173097024     -0.002170222173097024    -0.004624953448818988    0.0076754667012757655    8.802910793597541E-4
0.016771736353835536      0.00551262318497079      -0.0029603777701412903   -0.0012438021977039593   -0.0028310957312981107   -0.02488158847118124     0.014931170889549587     0.00711932185033356      -0.00711932185033356     -0.01493117088954958     0.02488158847118124      0.0028310957312981107
0.021025187101267915      0.006904637736181985     -0.0037030818480021156   -0.001560533914157389    -0.003542105728271917    -0.031160656672999817    0.018676385359740734     0.00894216558498719      -0.00894216558498719     -0.018676385359740727    0.031160656672999817     0.003542105728271917
0.022547828903037376      0.007403544203217208     -0.003969327082623616    -0.0016745097700986947   -0.0037989319218311975   -0.03341310873469999     0.020017030573910456     0.00959714623895836      -0.00959714623895836     -0.020017030573910452    0.03341310873469999      0.0037989319218311975
0.02663849250253726       0.008743884736285713     -0.004684610012949589    -0.0019807123744007235   -0.004488910063880217    -0.03946444900902303     0.023618750013817275     0.011356788931325574     -0.011356788931325574    -0.023618750013817268    0.03946444900902303      0.004488910063880216
0.02756042574299528       0.00904368395691548      -0.004844693818853914    -0.0020492840668032103   -0.00464384980994361     -0.04081858563760549     0.02442431310317983      0.011750422724482077     -0.011750422724482077    -0.024424313103179822    0.04081858563760549      0.004643849809943608
0.03241405839379789       0.010638059035598984     -0.005696430670032562    -0.002410200707851959    -0.005453976770307541    -0.04800621291270343     0.028724607249887787     0.013827628892508138     -0.013827628892508138    -0.028724607249887776    0.04800621291270343      0.005453976770307539
0.034266983167809795      0.011246728313829446     -0.0060215900766116374   -0.002547984391469176    -0.005763251168052713    -0.05075016442337045     0.03036628929161706      0.014620623963700709     -0.014620623963700709    -0.030366289291617055    0.05075016442337046      0.005763251168052712
0.039371469351552175      0.012919960809048782     -0.006915164368176736    -0.002923532478258893    -0.006599701399468208    -0.05827954463566329     0.034891284809592166     0.016788558426602956     -0.016788558426602956    -0.03489128480959215     0.058279544635663295     0.006599701399468206
0.03971489448667066       0.01303168503811602      -0.006974864873935408    -0.002948635584586633    -0.006655766883920705    -0.05878250703638475     0.0351934223596917       0.016933317792772375     -0.016933317792772375    -0.03519342235969169     0.058782507036384754     0.0066557668839207045
0.04483574593358513       0.01471454578479133      -0.007874514665797333    -0.0033228584550062425   -0.007485886247834298    -0.06634406938699959     0.03976120174694965      0.019096981392215658     -0.019096981392215658    -0.03976120174694964     0.06634406938699959      0.007485886247834295
0.04502363909474477       0.014776607952963464     -0.0079076880878331      -0.0033364876822922344   -0.007515799086741295    -0.06662223089859512     0.03993032944025725      0.019176102371596598     -0.019176102371596598    -0.039930329440257234    0.06662223089859512      0.007515799086741293
0.0451695977041862        0.014824506935947427     -0.007933311807816187    -0.003347309571708083    -0.007540159838386032    -0.0668381875821757      0.040059711008511044     0.01923831673527865      -0.01923831673527865     -0.04005971100851103     0.0668381875821757       0.00754015983838603
0.046930264560250574      0.015402301915646083     -0.00824240515062036     -0.0034778516622870253   -0.007834018269717       -0.0694432259323013      0.0416204126340051       0.01998879502857922      -0.01998879502857922     -0.041620412634005094    0.0694432259323013       0.007834018269717
0.051869363230346056      0.01702211003098162      -0.009108099211929082    -0.0038449622396999244   -0.008659926532623688    -0.07674836665655015     0.045988668738950744     0.022099771384975726     -0.022099771384975726    -0.04598866873895074     0.07674836665655015      0.008659926532623688
0.05210444620056708       0.01709998406622519      -0.009149736834900694    -0.0038624311132752715   -0.008698966825352768    -0.07709890309025351     0.046199454184051324     0.022200482080849425     -0.022200482080849425    -0.046199454184051324    0.07709890309025351      0.008698966825352768
0.05624284537652299       0.018461309338177828     -0.009873834771139378    -0.004163656365510875    -0.009353511099105961    -0.08319874845181724     0.04988949752773024      0.02395573982498106      -0.02395573982498106     -0.04988949752773024     0.08319874845181724      0.009353511099105958
0.05770096341393335       0.018942547445703235     -0.010130337715937097    -0.0042707396823698      -0.009588876985884008    -0.08535906676869691     0.05119314930973852      0.024577040473074414     -0.024577040473074414    -0.05119314930973851     0.08535906676869691      0.009588876985884006
0.06124428161735769       0.02010535874004037      -0.010745946261255811    -0.0045245918489616715   -0.010125488699533359    -0.0905469236596948      0.05435018886800144      0.02607124609216003      -0.02607124609216003     -0.05435018886800144     0.0905469236596948       0.010125488699533357
0.06605764643373163       0.021684961431900074     -0.01158220999558048     -0.004869433327227087    -0.01085444043184962     -0.09759428615944989     0.058638819541633205     0.028101026185967087     -0.028101026185967087    -0.058638819541633205    0.09759428615944989      0.010854440431849618
0.07125274142834798       0.0233983175315065       -0.01249240352914677     -0.005232564362371402    -0.011610832973912903    -0.1052041030999389      0.06334358820096767      0.03024968192505833      -0.03024968192505833     -0.06334358820096767     0.1052041030999389       0.0116108329739129
0.07666882225663511       0.025190463445605105     -0.0134464225844674      -0.00561467080988439     -0.012417024101729526    -0.11317887788414996     0.0682615114050748       0.032500342377345615     -0.032500342377345615    -0.0682615114050748      0.11317887788414996      0.012417024101729523
0.07695069284045358       0.025282605308022642     -0.013494984184499851    -0.005634715921924556    -0.012458605625152474    -0.11358902685724304     0.06851129948184656      0.032619121750244        -0.032619121750244       -0.06851129948184656     0.11358902685724304      0.012458605625152474
0.08141634557350333       0.026742401339800746     -0.014264341663980043    -0.005952289001576293    -0.0131173783186438      -0.12008698367784679     0.07246867166523642      0.03450093369396657      -0.03450093369396657     -0.07246867166523642     0.12008698367784679      0.013117378318643798
0.08269105650477056       0.027163038674575427     -0.014488634289078017    -0.006039309352016783    -0.013297062926150318    -0.12194921762445202     0.07363474280831774      0.035017411889983974     -0.035017411889983974    -0.07363474280831774     0.12194921762445202      0.013297062926150316
0.08396821822747315       0.02758710258971888      -0.014717677028029641    -0.006123640853528364    -0.013473389318764614    -0.12382179967764011     0.07483267284941318      0.035515737509462325     -0.035515737509462325    -0.07483267284941318     0.12382179967764011      0.01347338931876461
0.08914197217502748       0.029304976149494857     -0.015645524107804322    -0.006465265904681198    -0.014187683643148033    -0.13140758824112742     0.07968546100367783      0.03753444359430158      -0.03753444359430158     -0.07968546100367783     0.13140758824112742      0.01418768364314803
0.092910008676108         0.030553046639418366     -0.01631015115159353     -0.006718720048881742    -0.01469924037147083     -0.13691142692914426     0.08316166653809032      0.03905052001958314      -0.03905052001958314     -0.08316166653809032     0.13691142692914426      0.014699240371470827
0.10629461953651778       0.03495980867579725      -0.01866172235270184     -0.007589190185632537    -0.016422310449041157    -0.15626154515223015     0.09554802366716986      0.04429121103601918      -0.04429121103601918     -0.09554802366716984     0.15626154515223015      0.01642231044904115
0.10629759737289177       0.0349607889631726       -0.018662246369340954    -0.007589388221230589    -0.016422714066600032    -0.15626586991929037     0.09555076414944566      0.04429239170324472      -0.04429239170324472     -0.09555076414944565     0.15626586991929037      0.016422714066600026
0.10634245817170002       0.03497555689169392      -0.01867014062613249     -0.007592371607154246    -0.016428794523626618    -0.15633102209040226     0.0955920492331683       0.044310178333607377     -0.044310178333607377    -0.09559204923316829     0.15633102209040226      0.01642879452362661
0.10645595593710958       0.035013085323147064     -0.01869019404974742     -0.007599653004407244    -0.01644302352057712     -0.15649536481316534     0.09569814077790738      0.044354200514680864     -0.044354200514680864    -0.09569814077790736     0.15649536481316534      0.016443023520577114
0.11359784170711287       0.037372742574247        -0.01994792286048881     -0.008058440662823586    -0.017332046084266764    -0.16682301638125474     0.1023554910786661       0.047135479218321945     -0.047135479218321945    -0.10235549107866604     0.16682301638125474      0.01733204608426676
0.11422191896050471       0.03757769716403996      -0.020057393894165915    -0.00809713963505271     -0.01740534589462863     -0.1677161345507885      0.10293901747036684      0.04737177118579307      -0.04737177118579307     -0.1029390174703668      0.1677161345507885       0.017405345894628624
0.11558447916770566       0.03802517857249911      -0.020296404166562303    -0.008181631866314775    -0.017565382819947777    -0.16966609710994418     0.10421304217942602      0.04788767211057045      -0.04788767211057045     -0.104213042179426       0.16966609710994418      0.01756538281994777
0.12581625646388722       0.041408659454454565     -0.022093981866499305    -0.008802424241718437    -0.018674323657462515    -0.18430896147528078     0.11388956754153329      0.05174507027628501      -0.05174507027628501     -0.11388956754153326     0.18430896147528078      0.01867432365746251
0.13361411141236684       0.04398728214870426      -0.023463954038192437    -0.00927554330562989     -0.019519471039688322    -0.19546859963450536     0.12126425318946628      0.05468487540535082      -0.05468487540535082     -0.12126425318946624     0.19546859963450536      0.019519471039688315
0.13428567473811776       0.04420917074383663      -0.023581978329865368    -0.009316394714405242    -0.019593172359543786    -0.1964298553348903      0.12189869761964839      0.05493798535569818      -0.05493798535569818     -0.12189869761964835     0.1964298553348903       0.019593172359543776
0.13452909919074496       0.04428911652559961      -0.0236245903250235      -0.009330659682764636    -0.019618176654929813    -0.19677464275732828     0.12212936529521118      0.0550271008071873       -0.0550271008071873      -0.12212936529521114     0.19677464275732828      0.019618176654929806
0.13524279229522013       0.04452666406678887      -0.02375078594425109     -0.009369497307757583    -0.01967701893020587     -0.19778367519736137     0.12282769673530068      0.05527895953185481      -0.05527895953185481     -0.12282769673530063     0.19778367519736137      0.019677018930205865
0.1369970215293699        0.045108991344611445     -0.024061075786880697    -0.009466518109731866    -0.019831317110346663    -0.20026728248879244     0.12453513761093751      0.05590082776750828      -0.05590082776750828     -0.12453513761093749     0.20026728248879244      0.019831317110346657
0.15168476034210043       0.04998467736881092      -0.026659057895527784    -0.010278849913956157    -0.02112321860478613     -0.22106192808002978     0.13883112876838055      0.06110758070686314      -0.06110758070686314     -0.1388311287683805      0.22106192808002978      0.021123218604786127
0.15382733297062126       0.05069050431204153      -0.027035468720178157    -0.010397862058926174    -0.02131684577215611     -0.22407886302032218     0.14089596654891282      0.061866050699253286     -0.061866050699253286    -0.1408959665489128      0.22407886302032218      0.02131684577215611
0.16201970537011548       0.05342081758341875      -0.028492261779655855    -0.010826480945304617    -0.021941073953348527    -0.23562434428702353     0.14901249672458655      0.06467077360908843      -0.06467077360908843     -0.14901249672458652     0.23562434428702353      0.021941073953348527
0.16249953002104367       0.05358091292877708      -0.02857751001803417     -0.010851899532021184    -0.021978302324633093    -0.23630195403974136     0.14948675778357187      0.06483689393153638      -0.06483689393153638     -0.14948675778357187     0.23630195403974136      0.02197830232463309
0.1629412574403654        0.05372839657853065      -0.028655997261114407    -0.01087339983806247     -0.022004797978531814    -0.23691838429265438     0.14993118558815458      0.06498240072596796      -0.06498240072596796     -0.14993118558815458     0.23691838429265438      0.02200479797853181
0.16897855040445126       0.05574197806375607      -0.029727445223832367    -0.011172703941264855    -0.022389195309044402    -0.2453571075640686      0.15597547603394976      0.06699243622107448      -0.06699243622107448     -0.15597547603394976     0.2453571075640686       0.022389195309044395
0.1720243799077271        0.0567584843005992       -0.030269103862492548    -0.011320413417060287    -0.022571996654520383    -0.24960593385691715     0.15904262652043488      0.06799131068196193      -0.06799131068196193     -0.15904262652043485     0.24960593385691715      0.022571996654520383
0.17548599882588495       0.05791375488160097      -0.030884704896218553    -0.011488286870007912    -0.02277975240548536     -0.25443477193188924     0.16252847697182593      0.06912654255457797      -0.06912654255457797     -0.16252847697182593     0.25443477193188924      0.02277975240548536
0.17723959372147757       0.05849888578302523      -0.03119490831752992     -0.011571113237049837    -0.02287140633473866     -0.2568669494668395      0.16429804357044084      0.06969749956166006      -0.06969749956166006     -0.1642980435704408      0.2568669494668395       0.022871406334738657
0.1801887892584928        0.05948295881345388      -0.03171660836809328     -0.011710410604213234    -0.023025549894225       -0.2609573851480405      0.16727410031433465      0.0706577349394809       -0.0706577349394809      -0.16727410031433462     0.2609573851480405       0.023025549894225
0.18074527521512398       0.059668954905208516     -0.03181575337940161     -0.011736770141129275    -0.0230564308923049      -0.261732250513139       0.16783808938410477      0.07083773023672932      -0.07083773023672932     -0.16783808938410474     0.261732250513139        0.0230564308923049
0.1810668993930775        0.05977652095255239      -0.03187317205163408     -0.011751657354994512    -0.023073103669775476    -0.26217918747998503     0.16816592864002894      0.07094015517018065      -0.07094015517018065     -0.1681659286400289      0.26217918747998503      0.023073103669775476
0.18185809104218625       0.06003976066659746      -0.03201452599075214     -0.011785945990711626    -0.023107840601908007    -0.2632668832682979      0.16897931534260485      0.07117972732378504      -0.07117972732378504     -0.16897931534260482     0.2632668832682979       0.023107840601908007
0.18608032017701065       0.06144455101206685      -0.0327688675219587      -0.011968928807683053    -0.023293215772474597    -0.269071419820742       0.17331998935927756      0.07245821468898983      -0.07245821468898983     -0.17331998935927753     0.269071419820742        0.023293215772474597
0.19233785379187116       0.0635399116166015       -0.03388610889671735     -0.012248230753311882    -0.023571426470196555    -0.27773107293660254     0.17974522691010747      0.07441441955629852      -0.07441441955629852     -0.17974522691010744     0.27773107293660254      0.023571426470196555
0.19347337717356583       0.06391952778679122      -0.03408806679185458     -0.012293219272051825    -0.023598021890188597    -0.2792761330373535      0.18093037886093885      0.07474773228622604      -0.07474773228622604     -0.18093037886093882     0.2792761330373535       0.023598021890188597
0.19645343713579755       0.06491578992285557      -0.034618083740036554    -0.012411286839499828    -0.023667818732397837    -0.28333097842382016     0.18404068370782145      0.07562247598360082      -0.07562247598360082     -0.18404068370782142     0.28333097842382016      0.023667818732397837
0.1970968059880579        0.06513099597868265      -0.034732875285612363    -0.012436247048301735    -0.02368162209267872     -0.28420560600740935     0.18471562962099541      0.07580835429373518      -0.07580835429373518     -0.18471562962099541     0.28420560600740935      0.02368162209267872
0.19749674376953666       0.06526563299237823      -0.034805017517943196    -0.012452574634941174    -0.023694085108837824    -0.28475661707835076     0.18513601999882132      0.07592651197069158      -0.07592651197069158     -0.1851360199988213      0.28475661707835076      0.023694085108837824
0.20263058576674906       0.06699391470843387      -0.035731078618605555    -0.01266216536101045     -0.023854067882990743    -0.2918297267167262      0.19053240382864256      0.07744325500509287      -0.07744325500509287     -0.19053240382864256     0.2918297267167262       0.023854067882990743
0.20565875846921539       0.0680116119518979       -0.03627295486683914     -0.012770258792140683    -0.023876675865284372    -0.2959231236728759      0.1937610533357504       0.07828539447184109      -0.07828539447184109     -0.1937610533357504      0.2959231236728759       0.023876675865284372
0.20905447673533237       0.06915202659291148      -0.03688136620773829     -0.012890456139834226    -0.023901869996728817    -0.30050997636837473     0.1973863272497009       0.07922177912194499      -0.07922177912194499     -0.1973863272497009      0.30050997636837473      0.023901869996728817
0.21092685394772465       0.06978542616721609      -0.037221989946176245    -0.012957050226774236    -0.02392331841119351     -0.3030650230800578      0.1994086212658639       0.0797330834030004       -0.0797330834030004      -0.19940862126586395     0.3030650230800578       0.02392331841119351
0.21330135528128089       0.07058958304610433      -0.03765011833631878     -0.01304561265075808     -0.023953639519780037    -0.3063119717041973      0.2019470704981326       0.08041126168628462      -0.08041126168628462     -0.20194707049813262     0.3063119717041973       0.02395363951978003
0.21455563765607616       0.07101040023475191      -0.037873067244811744    -0.013088828539693714    -0.023953715423706244    -0.30799531636271393     0.20328468804516414      0.08075691289384349      -0.08075691289384349     -0.20328468804516414     0.30799531636271393      0.02395371542370624
0.21638577419049743       0.07162441899698013      -0.0381983743295174      -0.013151885295331782    -0.023953826175919034    -0.3104515021638396      0.2052364198011853       0.08126125618673524      -0.08126125618673524     -0.2052364198011853      0.3104515021638396       0.02395382617591903
0.21703676397077454       0.07184314300721151      -0.038315030655606104    -0.013172949114501552    -0.023950602410401454    -0.3113231744392475      0.20593958152323508      0.08143299050561098      -0.08143299050561098     -0.20593958152323508     0.3113231744392475       0.02395060241040145
0.2193843783967887        0.07263879994073347      -0.038742676003279596    -0.013246798103813497    -0.023937620543625818    -0.3144928203065597      0.20851843547605167      0.08203676428688216      -0.08203676428688216     -0.20851843547605167     0.3144928203065597       0.023937620543625818
0.22459982490879696       0.07440839384947825      -0.039684291688018444    -0.013419886831304642    -0.02391563469031736     -0.32154921008823034     0.21419011543779315      0.0834434599601198       -0.0834434599601198      -0.21419011543779315     0.32154921008823034      0.02391563469031736
0.22501905120621668       0.0745493123713374       -0.039758910350016344    -0.013432608299546569    -0.023908539505560468    -0.3221057889909101      0.21464492259453746      0.0835523268908121       -0.0835523268908121      -0.21464492259453746     0.3221057889909101       0.023908539505560468
0.22602815876635968       0.07489147463201717      -0.03994151303713409     -0.01346232201696831     -0.02389087791524114     -0.32345677644330983     0.21575820030756326      0.08380769822050535      -0.08380769822050535     -0.21575820030756326     0.32345677644330983      0.02389087791524114
0.22618723111039998       0.07494516151097959      -0.03997026533799626     -0.013467078154947852    -0.02388878561182097     -0.3236694316557393      0.21593280641615648      0.08384783962776185      -0.08384783962776185     -0.21593280641615648     0.3236694316557393       0.02388878561182097
0.22784190284585265       0.07550361283524815      -0.04026934699076821     -0.013516551538471193    -0.023867021455693076    -0.32588147279668567     0.21774906048891607      0.08426539085207649      -0.08426539085207649     -0.2177490604889161      0.32588147279668567      0.023867021455693072
0.2278992054124795        0.07552297405088246      -0.04027961170355903     -0.01351836401227434     -0.02386634305800949     -0.32595823926153933     0.21781132716334456      0.08428056904018523      -0.08428056904018523     -0.2178113271633446      0.32595823926153933      0.023866343058009484
0.2286605182008714        0.07578020408312873      -0.040415987045482354    -0.01354244425101733     -0.0238573299742589      -0.3269781463067738      0.21863859229863508      0.08448222403387975      -0.08448222403387975     -0.2186385922986351      0.3269781463067738       0.023857329974258896
0.22962097677515875       0.07610482845801364      -0.04058612613119278     -0.013570416302421652    -0.023830386687237685    -0.3282497005192922      0.21968637009991887      0.08473294373213554      -0.08473294373213554     -0.2196863700999189      0.3282497005192922       0.023830386687237685
0.2296637077194741        0.07611927104456338      -0.04059369564433159     -0.013571660783134242    -0.023829187976404972    -0.32830627215465846     0.21973298588958445      0.08474409828866898      -0.08474409828866898     -0.21973298588958445     0.32830627215465846      0.023829187976404972
0.23203326177271022       0.07692212027063838      -0.04102058961623368     -0.013642176047633217    -0.023786232497957173    -0.3314747135805106      0.22233730519944483      0.08535117588310859      -0.08535117588310859     -0.22233730519944483     0.3314747135805106       0.023786232497957173
0.2322609067664399        0.07699997219861199      -0.04106287085361039     -0.013649613208879741    -0.02378712099912617     -0.3317870097935741      0.2225901041225361       0.08540978467191176      -0.08540978467191176     -0.2225901041225361      0.3317870097935741       0.02378712099912617
0.23318687079419875       0.07731664107682513      -0.041234853132765835    -0.013679864450824891    -0.023790735047946814    -0.3330572993552473      0.22361838374864812      0.08564818055865234      -0.08564818055865234     -0.22361838374864812     0.3330572993552473       0.023790735047946814
0.2364284493042473        0.07841552039210568      -0.04182183555236643     -0.013767963897668465    -0.023706321463561802    -0.3373684030319845      0.2272246918506367       0.08643738971778593      -0.08643738971778593     -0.2272246918506367      0.3373684030319845       0.023706321463561802
0.23804846129741447       0.07896896398871056      -0.042117373603998184    -0.013813257908872363    -0.023667224470062902    -0.3395430804249051      0.22903701715392616      0.086838838800916        -0.086838838800916       -0.22903701715392616     0.3395430804249051       0.023667224470062902
0.2399517569591063        0.07961918559253318      -0.04246459096652884     -0.01386647226493182     -0.023621290774247388    -0.34209803314438025     0.23116625502492555      0.08731048734520719      -0.08731048734520719     -0.23116625502492555     0.34209803314438025      0.023621290774247388
0.24362759216825544       0.08086331134097421      -0.043127315560090536    -0.01396480452069746     -0.023514542081112984    -0.34696778744500995     0.23524935127943014      0.08820389408446672      -0.08820389408446672     -0.23524935127943014     0.34696778744500995      0.023514542081112984
0.24757429207295625       0.08221405202550536      -0.04384825758361856     -0.014055598949844204    -0.023339064499221768    -0.3521952726012432      0.23975048100248955      0.08910572709953188      -0.08910572709953188     -0.23975048100248955     0.3521952726012432       0.023339064499221764
0.24999961622368594       0.08304576167406626      -0.044293153432050175    -0.01410933854488505     -0.02322529112755823     -0.35540833782382325     0.24253362946474288      0.08964941723152217      -0.08964941723152217     -0.24253362946474288     0.35540833782382325      0.023225291127558223
0.2523976829552671        0.08386812401187949      -0.04473304924260459     -0.014162474178320821    -0.023112796417338117    -0.358585292464856       0.24528549903828953      0.09018699700922846      -0.09018699700922846     -0.24528549903828953     0.358585292464856        0.02311279641733811
0.2525852710667462        0.08393211141519201      -0.04476720663797335     -0.014166382016661696    -0.023102925150182804    -0.35883137081095084     0.24550031467765726      0.09022813098311078      -0.09022813098311078     -0.24550031467765726     0.35883137081095084      0.023102925150182793
0.25299704020009905       0.08407251652264364      -0.0448423097094714      -0.014175743994488623    -0.023084872061081448    -0.3593749381516559      0.24596898619574695      0.09032107989482754      -0.09032107989482754     -0.24596898619574695     0.3593749381516559       0.023084872061081445
0.25415177854393844       0.08446625939483307      -0.04505292383611263     -0.014201998110922513    -0.02303424516236183     -0.3608992827416941      0.24728329785431397      0.09058173972501828      -0.09058173972501828     -0.24728329785431397     0.3608992827416941       0.023034245162361827
0.2551319689724846        0.0848033941761292       -0.045231230116529575    -0.014224282082678716    -0.02298403032804521     -0.36219760703256193     0.2484033503711322       0.09081022633338454      -0.09081022633338454     -0.2484033503711322      0.36219760703256193      0.022984030328045205
0.25542065434487693       0.08490268700439034      -0.04528374482536873     -0.014230845150933077    -0.02296924107105784     -0.3625799890886192      0.2487332278811546       0.09087752013640679      -0.09087752013640679     -0.2487332278811546      0.3625799890886192       0.022969241071057835
0.2616597767692321        0.08704136360035648      -0.046424559088885556    -0.014357036064526745    -0.0226190943240507      -0.3707845487254766      0.25592826020926274      0.09223719419216328      -0.09223719419216328     -0.25592826020926274     0.3707845487254766       0.022619094324050695
0.26367879963130825       0.08773411107095408      -0.04679808315589357     -0.01439113156966073     -0.022490553604415497    -0.37342699788823186     0.2582979453309461       0.09263849895287035      -0.09263849895287035     -0.2582979453309461      0.37342699788823186      0.022490553604415493
0.26828878091093306       0.08932921261012298      -0.04764846061288527     -0.01446955965499259     -0.02216519523838022     -0.37948204567887217     0.26372556843893147      0.09359128200156051      -0.09359128200156051     -0.26372556843893147     0.37948204567887217      0.022165195238380214
0.27020282596380285       0.08998846657472724      -0.04799719919537046     -0.014503794820580215    -0.02202984371897777     -0.3819837100178868      0.265953351453245        0.09400051484566398      -0.09400051484566398     -0.265953351453245       0.3819837100178868       0.022029843718977767
0.2708558051822809        0.09021337201148301      -0.048116171863596284    -0.01451547419648433     -0.02198366835376016     -0.38283715639969224     0.26671336282781755      0.0941401252181145       -0.0941401252181145      -0.26671336282781755     0.38283715639969224      0.02198366835376015