% Model:              Cylinder_potential.mph
% Version:            COMSOL 6.2.0.415
% Date:               Nov 25 2024, 19:16
% Dimension:          1
% Nodes:              496
% Expressions:        11
% Description:        Line graph
% Arc length (m)          Magnetic scalar potential Magnetic scalar potential Magnetic scalar potential Magnetic scalar potential Magnetic scalar potential Magnetic scalar potential Magnetic scalar potential Magnetic scalar potential Magnetic scalar potential Magnetic scalar potential Magnetic scalar potential
0                         8.56282091494273E-6      -1.1742417937593635E-5   1.5356620163468382E-6    -1.195896391748344E-5    -4.621024757724612E-5    5.849554370804082E-5     -2.42442600482712E-5     2.42442600482712E-5      -5.849554370803518E-5    4.621024757724612E-5     1.1958963917482138E-5
0.004382872856982761      -0.0017749815268429238   -1.0183116793471467E-5   -6.364650097440026E-7    -0.0035830582641052096   0.003516867843266488     -0.003521959563344418    -0.0035779665440272726   0.0035779665440272726    0.0035219595633444226    -0.003516867843266488    0.0035830582641052083
0.005729361479364251      -0.0023242471048344664   -9.942529117743795E-6    -2.4089592789392486E-6   -0.004687957634137893    0.004609030785199973     -0.004628302459431466    -0.0046686859599063945   0.0046686859599063945    0.004628302459431471     -0.004609030785199973    0.004687957634137889
0.00874846366021152       -0.003554524429661016    -9.141264371787157E-6    -1.4632259926821648E-6   -0.0071423255564080895   0.007075772162235967     -0.0070874779701774054   -0.007130619748466652    0.007130619748466652     0.007087477970177411     -0.007075772162235967    0.007142325556408086
0.019590241302089927      -0.007975722198333842    -7.32463231836462E-6     3.924016182853354E-6     -0.015957722228891316    0.015945166564444016     -0.015913774434981175    -0.01598911435835418     0.01598911435835418      0.01591377443498118      -0.015945166564444016    0.01595772222889131
0.02220112639867415       -0.009038466622820499    -5.171338311545657E-6    3.1255074373356806E-6    -0.018079945230826244    0.01807392126045572      -0.01804891720095702     -0.018104949290324968    0.018104949290324968     0.018048917200957023     -0.01807392126045572     0.018079945230826233
0.023440699401998895      -0.009541174494196242    -3.564394864734614E-6    3.0199162793398884E-6    -0.019080962507869285    0.019083735468915657     -0.019059576138680923    -0.019105121838104047    0.019105121838104047     0.01905957613868093      -0.019083735468915657    0.019080962507869274
0.027746313134825954      -0.011287312808591765    2.017267331771511E-6     2.6531490629579332E-6    -0.02255796121893634     0.022591290015430695     -0.022570064822927022    -0.02257918641144006     0.02257918641144006      0.022570064822927026     -0.022591290015430695    0.022557961218936332
0.03431880210922811       -0.013969978249187536    3.879355031282295E-6     5.6910769275591115E-6    -0.027905554125570952    0.027974358871179165     -0.027928830255758687    -0.027951082740991492    0.027951082740991492     0.027928830255758694     -0.027974358871179165    0.02790555412557094
0.03558685898351884       -0.014488694148506415    3.8001300601291543E-6    7.527304564937195E-6     -0.02893587868857266     0.02901889790545298      -0.028958679468933473    -0.02899609712509223     0.02899609712509223      0.02895867946893348      -0.02901889790545298     0.028935878688572652
0.03628099988414042       -0.014771604517333746    4.084140520192769E-6     8.685630633481275E-6     -0.02949621409057296     0.029590203978762        -0.029520718933694144    -0.029565699135640874    0.029565699135640874     0.02952071893369415      -0.029590203978762       0.029496214090572945
0.037867959445633925      -0.01541763268978439     5.1005519901001824E-6    1.1694854434974759E-5    -0.030773184305858542    0.030897346453278976     -0.03080378761779918     -0.03086674314133842     0.03086674314133842      0.030803787617799186     -0.030897346453278976    0.03077318430585854
0.039384518466412034      -0.01603897006591812     4.535518717985079E-6     1.540075121391006E-5     -0.032002730570826615    0.032153149692845835     -0.032029943683134554    -0.03212593658053797     0.03212593658053797      0.032029943683134554     -0.032153149692845835    0.03200273057082661
0.04494145264972005       -0.01830877875901682     3.4401821290713265E-6    1.228232788070946E-5     -0.03655810766012354     0.03667700737594368      -0.03657874875289799     -0.0366563662831693      0.0366563662831693       0.036578748752897995     -0.03667700737594368     0.03655810766012354
0.048501351505089475      -0.01976077747072004     2.731287551730648E-6     8.790956970124979E-6     -0.039478197250904346    0.03956491263197576      -0.03949458497621475     -0.03954852490666543     0.03954852490666543      0.03949458497621475      -0.03956491263197576     0.039478197250904346
0.05107602923967278       -0.0208149498728371      2.7589552112328684E-6    7.657806955681846E-6     -0.041590991652217746    0.04166880783913062      -0.041607545383485156    -0.04165225410786328     0.04165225410786328      0.041607545383485156     -0.04166880783913062     0.041590991652217746
0.05377736459158411       -0.021920605677761912    2.8828083025423615E-6    8.716088993042877E-6     -0.04379769857464399     0.043884724136403604     -0.043814995424459255    -0.04386742728658841     0.04386742728658841      0.043814995424459255     -0.043884724136403604    0.04379769857464399
0.0584350283875083        -0.023826986168324838    3.09635678292456E-6      1.0540787258589852E-5    -0.04760252011726651     0.04770542455603279      -0.04762109825796407     -0.04768684641533531     0.04768684641533531      0.04762109825796407      -0.04770542455603279     0.04760252011726651
0.06593415554513195       -0.02691105053078152     4.594584975544692E-6     6.6006721378344336E-6    -0.05378191461808505     0.05386228750504101      -0.05380948212793832     -0.05383471999518778     0.05383471999518778      0.05380948212793832      -0.05386228750504101     0.05378191461808504
0.07284772246464744       -0.02974863152697682     1.964966550074918E-6     2.70158225871489E-6      -0.05948056182526855     0.05951396428263874      -0.05949235162456901     -0.05950217448333829     0.05950217448333829      0.05949235162456901      -0.05951396428263874     0.05948056182526855
0.07577807005722191       -0.03095348150817433     2.0937873790795748E-6    7.165632152339811E-6     -0.06187201912560206     0.061941906907095286     -0.06188458184987657     -0.06192934418282081     0.06192934418282081      0.06188458184987657      -0.061941906907095286    0.061872019125602064
0.07649234053654247       -0.031247162973049025    2.1251873793778128E-6    8.253741653516433E-6     -0.06245493541734585     0.06253371647485029      -0.06246768654162215     -0.06252096535057401     0.06252096535057401      0.06246768654162215      -0.06253371647485029     0.06245493541734585
0.091857015532487         -0.03759461048743786     5.1658428629051305E-6    1.7568013679198567E-5    -0.07510345139157021     0.0752749905581813       -0.0751344464487477      -0.07524399550100383     0.07524399550100383      0.0751344464487477       -0.0752749905581813      0.07510345139157024
0.09357500259413487       -0.038302936061116545    4.509152346728745E-6     1.854322328302036E-5     -0.07651817177206083     0.07669357247240545      -0.07654522668614126     -0.07666651755832501     0.07666651755832501      0.07654522668614126      -0.07669357247240545     0.07651817177206084
0.09421050268595407       -0.03856495256703767     4.2662361498359085E-6    1.8903962782523497E-5    -0.07704149057449576     0.07721831969365506      -0.07706708799139485     -0.07719272227675598     0.07719272227675598      0.07706708799139485      -0.07721831969365506     0.07704149057449577
0.09454965268557662       -0.03870460725807649     4.088334668156163E-6     1.9109441136402695E-5    -0.0773205117476029      0.07749791728470315      -0.07734504175561191     -0.07747338727669412     0.07747338727669412      0.07734504175561191      -0.07749791728470315     0.0773205117476029
0.09460625706842407       -0.03872800488091367     4.065774889242435E-6     1.9013406385354085E-5    -0.0773677588116182      0.07754426071203657      -0.07739215346095371     -0.07751986606270102     0.07751986606270102      0.07739215346095371      -0.07754426071203657     0.0773677588116182
0.09483839523551045       -0.03882387884081843     3.86409686392987E-6      1.9248359165496284E-5    -0.07755917195438307     0.07773634340889068      -0.07758235653556672     -0.07771315882770705     0.07771315882770705      0.07758235653556672      -0.07773634340889068     0.07755917195438307
0.09610940864299809       -0.03934881228884776     2.7598602044256668E-6    2.0534783269879278E-5    -0.07860720586400273     0.0787880432913884       -0.07862376502522936     -0.07877148413016176     0.07877148413016176      0.07862376502522936      -0.0787880432913884      0.07860720586400273
0.102829941116599         -0.04213555865396426     6.101702366159917E-6     2.299655880678872E-5     -0.08416082596560288     0.08438140865025424      -0.08419743617979991     -0.08434479843605719     0.08434479843605719      0.08419743617979991      -0.08438140865025423     0.08416082596560288
0.10317669529909881       -0.04227934427831264     6.274128844476498E-6     2.3123577159449348E-5    -0.08444737186145405     0.08467000525179662      -0.08448501663452099     -0.08463236047872966     0.08463236047872966      0.08448501663452099      -0.0846700052517966      0.08444737186145405
0.10608258064897562       -0.04348434420142247     7.580827667574917E-6     2.2558027876557487E-5    -0.08685571380833598     0.08708166299735401      -0.0869011987743415      -0.08703617803134844     0.08703617803134844      0.0869011987743415       -0.087081662997354       0.08685571380833598
0.1106762962861806        -0.045393791443607966    4.9054759267105116E-6    1.4130658949960292E-5    -0.09071634382363598     0.09085882195079603      -0.0907457766791963      -0.09082938909523564     0.09082938909523564      0.0907457766791963       -0.09085882195079603     0.09071634382363597
0.11270037876500996       -0.046236684856583665    4.705889522209719E-6     9.690026284165886E-6     -0.09242049193946406     0.09252624748687074      -0.09244872727659739     -0.09249801214973738     0.09249801214973738      0.0924487272765974       -0.09252624748687074     0.09242049193946406
0.11445181984840622       -0.04696565052212207     3.575351028494919E-6     5.946135491933589E-6     -0.09389679044919094     0.09396581163929749      -0.093918242555362       -0.09394435953312642     0.09394435953312642      0.09391824255536202      -0.09396581163929749     0.09389679044919094
0.11537316499758565       -0.04735162524948697     2.996417842271535E-6     7.2468435136030455E-6    -0.09466527387139274     0.09474122712655529      -0.09468325237844645     -0.09472324861950157     0.09472324861950157      0.09468325237844646      -0.09474122712655529     0.09466527387139273
0.12064687726475334       -0.04955794416999335     5.840546698047955E-7     1.0203020129980948E-5    -0.09907332409545738     0.09915845258451614      -0.09907682842347629     -0.09915494825649726     0.09915494825649726      0.09907682842347629      -0.09915845258451614     0.09907332409545738
0.12217889612802565       -0.050197764536055504    3.585287103704052E-8     5.048158844910805E-6     -0.10037522887811828     0.10041582926610387      -0.10037544399534457     -0.10041561414887759     0.10041561414887759      0.10037544399534457      -0.10041582926610387     0.10037522887811828
0.12526598691805957       -0.051495417995919064    -1.0159056456484706E-6   5.618049048446706E-6     -0.10297141151258132     0.10301026047109507      -0.1029653160787075      -0.10301635590496894     0.10301635590496894      0.1029653160787075       -0.10301026047109507     0.10297141151258132
0.12716506784491455       -0.05229369349311206     -1.6629143261642993E-6   5.968627534648147E-6     -0.10456850121906407     0.10460627275338433      -0.10455852373310714     -0.10461625023934128     0.10461625023934128      0.10455852373310714      -0.10460627275338433     0.10456850121906407
0.1276221028261753        -0.05248680350189775     -1.8617632057023326E-6   5.211224158543387E-6     -0.10495834739677848     0.10498886661081268      -0.10494717681754433     -0.10500003719004686     0.10500003719004686      0.10494717681754433      -0.10498886661081268     0.10495834739677848
0.12849824790440778       -0.052855809041794585    -2.069100907816767E-6    4.5933561687427956E-6    -0.10569945196163769     0.10572378420554078      -0.10568703735619084     -0.10573619881098764     0.10573619881098764      0.10568703735619084      -0.10572378420554078     0.1056994519616377
0.14103924530490308       -0.058137694007638734    -5.036898876263824E-6    -4.2507052161257455E-6   -0.11630750153277078     0.11624327449778427      -0.1162772801395133      -0.11627349589104181     0.11627349589104181      0.1162772801395133       -0.11624327449778427     0.1163075015327708
0.14429613269579428       -0.059503561481972556    -2.796084425317762E-6    -4.904781816272699E-6    -0.11903513034448616     0.11897911558340414      -0.11901835383793438     -0.11899589208995603     0.11899589208995603      0.11901835383793438      -0.11897911558340414     0.11903513034448618
0.1464170810026955        -0.06040342515786557     -2.1571832965013764E-6   -2.068687732577875E-6    -0.120821596616551       0.12079210401491142      -0.12080865351677209     -0.12080504711469041     0.12080504711469041      0.12080865351677209      -0.12079210401491142     0.12082159661655101
0.15203431005704934       -0.06278667059988632     -4.6508454427306124E-7   5.442570338151631E-6     -0.1255529661720529      0.12559371622749255      -0.12555017566478735     -0.12559650673475814     0.12559650673475814      0.12555017566478735      -0.12559371622749255     0.12555296617205292
0.15706431464376786       -0.0649246328148214      -6.292821120794216E-7    -3.320940243381702E-6    -0.12986443723695265     0.12983409402233315      -0.12986066154428022     -0.12983786971500555     0.12983786971500555      0.12986066154428022      -0.12983409402233315     0.12986443723695265
0.16066703393868412       -0.06645741548341715     -1.7200277058415582E-6   -1.0091356531843122E-5   -0.13296035647607926     0.1328693054575895       -0.13295003630984426     -0.1328796256238245      0.1328796256238245       0.13295003630984426      -0.1328693054575895      0.13296035647607926
0.1619674615379957        -0.06701395552513408     -2.7725813646876257E-6   -8.530065775582288E-6    -0.13407034905746462     0.13398547304307187      -0.13405371356927656     -0.13400210853125993     0.13400210853125993      0.13405371356927656      -0.13398547304307187     0.13407034905746462
0.1735676533612867        -0.07198434558104312     1.4325356048963678E-7    1.5554277656250821E-6    -0.14396203969034227     0.14397534263383027      -0.14396289921170533     -0.14397448311246727     0.14397448311246727      0.14396289921170533      -0.14397534263383027     0.14396203969034227
0.17617737683648832       -0.07310748473880321     -8.136788811716634E-7    5.879966091150676E-7     -0.14621505852781352     0.14621488042739944      -0.1462101764545266      -0.14621976250068644     0.14621976250068644      0.1462101764545266       -0.14621488042739944     0.14621505852781352
0.1779367736589883        -0.07386467126993011     -1.4588138593427103E-6   -6.421628582380681E-8    -0.14773397584658157     0.147724709233139        -0.14772522296342566     -0.14773346211629498     0.14773346211629498      0.14772522296342566      -0.147724709233139       0.14773397584658157
0.17848336483418467       -0.07410000932212396     -1.5324993231304756E-6   4.2026115639901307E-7    -0.14820293509759175     0.14819710219090423      -0.1481937401016531      -0.14820629718684294     0.14820629718684294      0.1481937401016531       -0.14819710219090423     0.14820293509759175
0.18560640738659584       -0.07718332722199064     -2.1275668375175588E-6   -3.3562895322226232E-6   -0.15438646230262276     0.15434684658533993      -0.15437369690159777     -0.154359611986365       0.154359611986365        0.15437369690159777      -0.15434684658533993     0.15438646230262276
0.19261740253489504       -0.08021814368947221     -2.7132737774354545E-6   -7.073434047422765E-6    -0.16047272093646647     0.16039985382142252      -0.16045644129380196     -0.16041613346408712     0.16041613346408712      0.16045644129380196      -0.16039985382142252     0.16047272093646647
0.19541826332067086       -0.08142817493687093     -1.6960020375644856E-6   -7.270379267753462E-6    -0.16289051939692564     0.16282218035055826      -0.1628803433847004      -0.16283235636278362     0.16283235636278362      0.1628803433847004       -0.16282218035055826     0.16289051939692564
0.19592484786724057       -0.08164892457672931     -1.7057336416330241E-6   -7.623283230242423E-6    -0.16333345948730457     0.16326223881961288      -0.16332322508545488     -0.16327247322146266     0.16327247322146266      0.16332322508545488      -0.16326223881961288     0.16333345948730457
0.19663622117065893       -0.08195812098735791     -9.607744985296995E-7    -5.883850558090077E-6    -0.16394265970044386     0.163889824248988        -0.1639368950534528      -0.16389558889597916     0.16389558889597916      0.1639368950534528       -0.163889824248988       0.16394265970044386
0.1978728023526945        -0.08249666589089018     -4.030622702938503E-7    -2.040551526521794E-6    -0.1650027031746974      0.16498396038886348      -0.16500028480107576     -0.16498637876248523     0.16498637876248523      0.16500028480107576      -0.16498396038886348     0.1650027031746974
0.19952853450735702       -0.08322092904864228     -2.1154328710533085E-6   -3.8297412095488535E-6   -0.16646352336073594     0.1664201928338333       -0.16645083076350978     -0.1664328854310596      0.1664328854310596       0.16645083076350978      -0.1664201928338333      0.16646352336073594
0.20097795530405288       -0.08385343347487256     -2.8625772560340575E-6   -6.549397325019614E-6    -0.16774165227081336     0.16767208162867706      -0.1677244768072773      -0.16768925709221322     0.16768925709221322      0.1677244768072773       -0.16767208162867706     0.16774165227081336
0.20406979949714008       -0.08519922281954719     -1.15914113028604E-6     -2.636869153321956E-6    -0.17041247053909858     0.17038442073909035      -0.17040551569231702     -0.170391375585872       0.170391375585872        0.17040551569231702      -0.17038442073909035     0.17041247053909858
0.20482758555219838       -0.08553082059754685     -5.358764180429234E-7    -1.5414393133190802E-6   -0.17106941458160121     0.17105386780858642      -0.17106619932309308     -0.17105708306709463     0.17105708306709463      0.17106619932309308      -0.17105386780858642     0.17106941458160121
0.20603106274086522       -0.08605975383680967     -1.3334662450831865E-6   -4.842626628731851E-6    -0.17214287857886953     0.17209613676836924      -0.1721348777813992      -0.1721041375658397      0.1721041375658397       0.1721348777813992       -0.17209613676836924     0.17214287857886953
0.20878517421546372       -0.08726713057052136     -2.2167246798958785E-7   -3.7443737515776564E-6   -0.17454990365345302     0.17451861862863255      -0.17454857361864523     -0.1745199486634404      0.1745199486634404       0.17454857361864523      -0.17451861862863255     0.17454990365345302
0.20922892625229755       -0.08746205070255504     -3.071019064253917E-7    -3.273288068399669E-6    -0.17493811586310298     0.17491008694711727      -0.17493627325166455     -0.17491192955855572     0.17491192955855572      0.17493627325166455      -0.17491008694711727     0.17493811586310298
0.21211895294796457       -0.08872753553062811     -8.73889152651873E-7     -4.730176948636447E-7    -0.17745958479949364     0.1774505573230189       -0.17745434146457784     -0.17745580065793473     0.17745580065793473      0.17745434146457784      -0.1774505573230189      0.17745958479949364
0.21358001755179487       -0.08937046267547026     -1.599359076606959E-6    -2.9015721367272373E-7   -0.17874688405702507     0.1787349666448561       -0.17873728790256554     -0.17874456279931566     0.17874456279931566      0.17873728790256554      -0.1787349666448561      0.17874688405702507
0.2197306872899241        -0.09208014607589779     -3.342762758045889E-8    -3.3715493665030537E-6   -0.1841738786321444      0.18414670567144692      -0.18417367806637902     -0.18414690623721233     0.18414690623721233      0.18417367806637902      -0.18414670567144692     0.1841738786321444
0.2204520985813438        -0.09239796450616122     1.5024027803171424E-7    -3.7329654702751773E-6   -0.18481041015336946     0.1847814478712755       -0.18481131159503777     -0.18478054642960723     0.18478054642960723      0.18481131159503777      -0.1847814478712755      0.18481041015336946
0.22158921471116966       -0.09289920191429851     -2.5364484843221936E-7   -3.196251992507683E-7    -0.18580044326393935     0.18579636439325478      -0.18579892139484888     -0.18579788626234534     0.18579788626234534      0.18579892139484888      -0.18579636439325478     0.18580044326393935
0.22813989219849892       -0.09580143613635594     -2.2362093066901137E-7   -2.075334744879487E-6    -0.19161184447448348     0.19159390007094046      -0.19161050274889962     -0.19159524179652443     0.19159524179652443      0.19161050274889962      -0.19159390007094046     0.19161184447448348
0.22854774437602307       -0.09598213233906792     -2.2175160947865858E-7   -2.1846470965667218E-6   -0.19197366852135062     0.19195486083492122      -0.1919723380116939      -0.19195619134457803     0.19195619134457803      0.1919723380116939       -0.19195486083492122     0.19197366852135062
0.23026788079266997       -0.0967439335460843      -9.556295385126997E-8    -3.1204747281609475E-6   -0.1935006356799428      0.19347509850439443      -0.1935000623022198      -0.19347567188211748     0.19347567188211748      0.1935000623022198       -0.19347509850439443     0.1935006356799428
0.23030139905200536       -0.09675879133344469     -1.1282446314881301E-7   -3.1149463875542334E-6   -0.19353038092582908     0.19350478440794977      -0.19352970397905028     -0.19350546135472857     0.19350546135472857      0.19352970397905028      -0.19350478440794977     0.19353038092582908
0.23105947647437464       -0.09709501421614954     -9.654850998838075E-7    -3.345672739959541E-7    -0.19419426315669475     0.19418579370790354      -0.1941884702460956      -0.19419158661850275     0.19419158661850275      0.1941884702460956       -0.19418579370790354     0.19419426315669475
0.23179000877343348       -0.09742066129785394     -1.5243424413053004E-6   -4.388812578109853E-8    -0.19484607117553499     0.19483657401588092      -0.19483692512088727     -0.1948457200705287      0.1948457200705287       0.19483692512088727      -0.19483657401588092     0.19484607117553499
0.23623552955327454       -0.09940459769239723     -1.586000760666088E-6    -1.0585337289388912E-6   -0.19881818752199226     0.19880020324759679      -0.19880867151742837     -0.19880971925216068     0.19880971925216068      0.19880867151742837      -0.19880020324759679     0.19881818752199226
0.24015069952266704       -0.10115185039411072     -1.640303240010865E-6    -1.952132070234128E-6    -0.20231643022622242     0.2022909713502205       -0.20230658840678245     -0.20230081316966048     0.20230081316966048      0.20230658840678245      -0.2022909713502205      0.20231643022622242
0.24052973823757973       -0.10132110015842534     -1.8766902599737386E-6   -7.109711149742608E-7    -0.2026506742720905      0.20263372636161087      -0.20263941413053074     -0.20264498650317064     0.20264498650317064      0.20263941413053074      -0.20263372636161087     0.2026506742720905
0.25                      -0.10557106980827702     -4.375719100068086E-6    -6.662205410582342E-7    -0.21115793165601848     0.21112634757708967      -0.2111316773414182      -0.21115260189169        0.21115260189169         0.2111316773414182       -0.21112634757708967     0.21115793165601848
0.2619781669058722        -0.09928420265924032     -9.59538879884481E-6     -1.5736249246054086E-6   -0.19860348598457564     0.1985333246523858       -0.19854591365178265     -0.19859089698517876     0.19859089698517876      0.19854591365178265      -0.1985333246523858      0.19860348598457564
0.2624047281711668        -0.0990743355975841      2.5590147574485324E-6    -5.012194469943803E-7    -0.1981429990286839      0.1981543433616527       -0.19815835311722865     -0.19813898927310789     0.19813898927310789      0.19815835311722865      -0.1981543433616527      0.1981429990286839
0.26770067712528456       -0.09650357090481682     -2.4026909819796504E-6   7.934029181934237E-6     -0.19298261376585188     0.19303166985341552      -0.1929681976199601      -0.1930460859993073      0.1930460859993073       0.1929681976199601       -0.19303166985341552     0.19298261376585188
0.2683982596100482        -0.09616669735449557     -2.2862721298739716E-6   7.45313206499028E-6      -0.19231044099712083     0.19235634842086155      -0.19229672336434167     -0.19237006605364068     0.19237006605364068      0.19229672336434167      -0.19235634842086155     0.19231044099712083
0.2686482940125958        -0.09604595181009275     -2.244544135310961E-6    7.2807641716612595E-6    -0.19206951419590484     0.19211429304446628      -0.19205604693109302     -0.19212776030927806     0.19212776030927806      0.19205604693109302      -0.19211429304446628     0.19206951419590484
0.27395633381231305       -0.09347945610396925     -1.0547805322927179E-5   -1.0957269860969999E-6   -0.18699493853185173     0.18692288588402542      -0.18693165169991421     -0.18698617271596285     0.18698617271596285      0.18693165169991421      -0.18692288588402542     0.18699493853185173
0.2748094563431191        -0.09309499819268494     1.279824038291909E-5     -2.3258024723569362E-7   -0.1861525319852101      0.18622746078552976      -0.18622932142750767     -0.18615067134323213     0.18615067134323213      0.18622932142750767      -0.18622746078552976     0.1861525319852101
0.28481235143197514       -0.08865299809764862     -7.861757286214543E-6    6.722056206419921E-7     -0.17732689264467338     0.17728509974592122      -0.1772797221009561      -0.1773322702896384      0.1773322702896384       0.1772797221009561       -0.17728509974592122     0.17732689264467338
0.2854013542419119        -0.08839143876762727     -9.07828475874196E-6     7.254823384158957E-7     -0.17680721046017717     0.17675854461033205      -0.1767527407516247      -0.17681301431888435     0.17681301431888435      0.1767527407516247       -0.17675854461033205     0.17680721046017717
0.2859345007187539        -0.08815601930506103     -9.590972166005895E-6    -4.4301377498067047E-7   -0.17634258358172006     0.17628149363852422      -0.176285037748724       -0.17633903947152008     0.17633903947152008      0.176285037748724        -0.17628149363852422     0.17634258358172006
0.2870504650858996        -0.0876999211821044      2.162038825823329E-5     1.2830116428398653E-9    -0.17533497606738757     0.17546470866103012      -0.17546469839693699     -0.1753349863314806      0.1753349863314806       0.17546469839693699      -0.17546470866103012     0.17533497606738757
0.2872141845150714        -0.08763265526564691     2.6248243169829687E-5    2.656158575810239E-7     -0.1751855033383541      0.1753451177242337       -0.17534299279737306     -0.1751876282652146      0.1751876282652146       0.17534299279737306      -0.1753451177242337      0.1751855033383541
0.28729658801636654       -0.08759934081278675     2.6152340103488737E-5    3.22742100447874E-7      -0.1751189336368613      0.1752784296142858       -0.17527584767748222     -0.17512151557366476     0.17512151557366476      0.17527584767748222      -0.1752784296142858      0.1751189336368613
0.2905613522053768        -0.08627750398802289     1.6700874369819264E-5    -3.1535371070007505E-7   -0.1725061667677792      0.17260384918431249      -0.17260637201399812     -0.17250364393809348     0.17250364393809348      0.17260637201399812      -0.17260384918431249     0.1725061667677792
0.2979126676251948        -0.08330110542757567     -4.581123889561779E-6    -1.7521630188894249E-6   -0.16662296287889564     0.16658145883140713      -0.1665954761355583      -0.16660894557474443     0.16660894557474443      0.1665954761355583       -0.16658145883140713     0.16662296287889564
0.2994821009868142        -0.08269632538818233     2.6257049528972764E-5    2.244670625053695E-6     -0.1653049009452776      0.16548040060745184      -0.1654624432424515      -0.16532285831027793     0.16532285831027793      0.1654624432424515       -0.16548040060745184     0.1653049009452776
0.3014429188629667        -0.08196270337594654     4.05959519151868E-6      6.227656598044943E-6     -0.16388831733992643     0.16396249616385983      -0.16391267491107556     -0.16393813859271067     0.16393813859271067      0.16391267491107556      -0.16396249616385983     0.16388831733992643
0.30630035812472095       -0.08015595896716488     -4.628488745671657E-5    7.05885857452575E-6      -0.16042253716240182     0.1602012987062577       -0.16014482783766157     -0.16047900803099796     0.16047900803099796      0.16014482783766157      -0.1602012987062577      0.16042253716240182