% Model:              Cylinder_potential.mph
% Version:            COMSOL 6.2.0.339
% Date:               Apr 30 2024, 08:06
% Dimension:          1
% Nodes:              442
% Expressions:        11
% Description:        Line graph
% Arc length (m)          Magnetic scalar potential Magnetic scalar potential Magnetic scalar potential Magnetic scalar potential Magnetic scalar potential Magnetic scalar potential Magnetic scalar potential Magnetic scalar potential Magnetic scalar potential Magnetic scalar potential Magnetic scalar potential
0                         8.562820914942296E-6     -1.17424179375939E-5     1.5356620163465998E-6    -1.1958963917487343E-5   -4.621024757724753E-5    5.849554370803995E-5     -2.4244260048272934E-5   2.4244260048272934E-5    -5.849554370803377E-5    4.621024757724753E-5     1.1958963917486475E-5
0.002987385227451093      -9.728162712063055E-4    -5.34745017383159E-4     2.290009189648634E-4     -0.002633863918702609    0.0012574011661226183    5.746061855963114E-4     -0.004465871270421533    0.004465871270421533     -5.746061855963062E-4    -0.0012574011661226183   0.002633863918702608
0.01021331651223843       -0.003357079581700838    -0.0018016688228454083   7.704957547739338E-4     -0.00903718261284214     0.0043911357139612       0.0017728303242302802    -0.015201148651033634    0.015201148651033634     -0.0017728303242302754   -0.0043911357139612      0.009037182612842127
0.01261850209937154       -0.004150117286024665    -0.0022232534291924326   9.529336450254094E-4     -0.011158260279524964    0.005442208864573678     0.002181260295629603     -0.018781729439728268    0.018781729439728268     -0.002181260295629598    -0.005442208864573678    0.011158260279524946
0.01497717172280625       -0.0049278177484894286   -0.0026366846463167907   0.0011318432111735183    -0.013238316591235129    0.006472954402722562     0.002581791286665589     -0.022293062280623305    0.022293062280623305     -0.002581791286665583    -0.006472954402722562    0.013238316591235111
0.021915345533926708      -0.007191994679267895    -0.0038406479217223902   0.0016454661415266263    -0.01932406855759643     0.009443910159475133     0.0037198189727378657    -0.03248779768980951     0.03248779768980951      -0.003719818972737864    -0.009443910159475133    0.01932406855759642
0.022143773675872808      -0.007267019725045818    -0.003880472567157992    0.0016624769059284837    -0.019525549527851654    0.009542529372331604     0.003757285875096253     -0.032825364775279586    0.032825364775279586     -0.003757285875096251    -0.009542529372331604    0.019525549527851644
0.02222198895561889       -0.007292817613788887    -0.003894150701274559    0.001668421005733706     -0.019594403308466603    0.00957686714668893      0.0037705008991807064    -0.03294177135433632     0.03294177135433632      -0.0037705008991807047   -0.00957686714668893     0.019594403308466592
0.030110333364222436      -0.009894644674701001    -0.005273648839347257    0.0022679088118878125    -0.026538600619892504    0.013039978078911486     0.005103292416190997     -0.044681871114995095    0.044681871114995095     -0.005103292416190994    -0.013039978078911484    0.026538600619892497
0.0305257174715243        -0.010030979007954143    -0.005346195060030848    0.002297844032584082     -0.026909167065664482    0.013214748966152073     0.005168003294520567     -0.04529191932633723     0.04529191932633723      -0.005168003294520564    -0.013214748966152068    0.02690916706566447
0.030662340629683277      -0.010075671959490823    -0.005370009229114921    0.0023077118916798255    -0.02703052403960709     0.013272163798356187     0.005189531335082397     -0.045492219173045786    0.045492219173045786     -0.005189531335082394    -0.013272163798356185    0.02703052403960708
0.0345010799757981        -0.011331422403776447    -0.006039122643633439    0.002584971907354941     -0.030440325109033432    0.014885364506072345     0.005794410752767156     -0.05112010036787305     0.05112010036787305      -0.005794410752767154    -0.014885364506072345    0.03044032510903343
0.034866131087884354      -0.011451608201936088    -0.0061030504754203034   0.0026114991022039478    -0.030766371421317273    0.015040061386427057     0.005851931431204501     -0.051658364238948956    0.051658364238948956     -0.0058519314312044995   -0.015040061386427056    0.03076637142131727
0.04309905145997142       -0.0141621330389902      -0.007544801318620235    0.0032097613061966503    -0.038119624809054495    0.01852890734690629      0.0071491831026668845    -0.0637977152586278      0.0637977152586278       -0.007149183102666884    -0.01852890734690629     0.03811962480905449
0.04472062689186146       -0.01469465686943869     -0.007829498251292484    0.003328805297699244     -0.03956258730195783     0.0192160401757969       0.0074144022057970205    -0.0661930296835519      0.0661930296835519       -0.0074144022057970205   -0.019216040175796898    0.03956258730195783
0.04580831415206153       -0.015050711846077381    -0.008020706917329954    0.0034099750379736173    -0.040523644292250124    0.01967920309205937      0.007600597211729544     -0.06780344459603918     0.06780344459603918      -0.007600597211729544    -0.019679203092059366    0.040523644292250124
0.04800037345899509       -0.01577074473278854     -0.008406863189580147    0.0035694251976025465    -0.04248437824390731     0.020598600687246824     0.007956800893573528     -0.0710397798247278      0.0710397798247278       -0.007956800893573528    -0.02059860068724682     0.04248437824390731
0.04968612932125772       -0.01632546546717657     -0.008702471921105745    0.003690515519180338     -0.043996284620949       0.021305577247757255     0.00821854690568543      -0.07352040877439181     0.07352040877439181      -0.00821854690568543     -0.02130557724775725     0.043996284620949
0.05381710739805146       -0.017684819596560507    -0.00942686696345904     0.003987249746803525     -0.04770124109628401     0.023038037289957985     0.008859960684470192     -0.0795992390707123      0.0795992390707123       -0.008859960684470196    -0.023038037289957985    0.047701241096284
0.05616395127973021       -0.0184568963442807      -0.009839538887260748    0.004157391223453933     -0.049802844456527884    0.02402474092059489      0.009234388867036546     -0.08306197424415943     0.08306197424415943      -0.00923438886703655     -0.02402474092059489     0.04980284445652787
0.05924956154242281       -0.019468780856705774    -0.010382812766352435    0.00438483598169636      -0.052546656085683374    0.025328467341139686     0.009750220512431167     -0.08762534393925432     0.08762534393925432      -0.00975022051243117     -0.025328467341139686    0.05254665608568336
0.06346938145876416       -0.020852614217061062    -0.011125783439848503    0.004695884960338691     -0.05629903891231282     0.027111417955931374     0.010455661726778137     -0.0938661185950224      0.0938661185950224       -0.010455661726778143    -0.027111417955931374    0.056299038912312804
0.06446107212645391       -0.02117891008104874     -0.011300309832768925    0.004768006921303384     -0.05718672197519066     0.027528918349004235     0.010615137021422824     -0.09533077734561779     0.09533077734561779      -0.010615137021422827    -0.027528918349004235    0.05718672197519065
0.0662186882913497        -0.021757513874766918    -0.011611589056620141    0.004891626460348687     -0.05878328907799946     0.028246766421068166     0.010886245261721316     -0.097916300760789       0.097916300760789        -0.010886245261721321    -0.028246766421068166    0.05878328907799944
0.07059859737631152       -0.02320171352589224     -0.012386377813549702    0.0051990805820842185    -0.06276623816409663     0.030040615939472267     0.011552028717201478     -0.10435888282077044     0.10435888282077044      -0.01155202871720148     -0.030040615939472267    0.06276623816409663
0.0775237690138958        -0.025474684025574783    -0.013592926183764564    0.005683209978422441     -0.06899530668875342     0.032903429413545654     0.012562250413833874     -0.11446098651613298     0.11446098651613298      -0.012562250413833877    -0.03290342941354566     0.06899530668875342
0.08650891604420756       -0.028439204315382438    -0.01517014261764524     0.0063052558242462815    -0.07716781318671542     0.03658900407481431      0.01385304251915592      -0.12760985978068565     0.12760985978068565      -0.01385304251915593     -0.036589004074814316    0.07716781318671541
0.08802093918357551       -0.028938072010315934    -0.015436536087290825    0.006407989816519369     -0.07855379301642684     0.03719849502483691      0.01406542350731802      -0.12981771154858177     0.12981771154858177      -0.014065423507318027    -0.03719849502483691     0.07855379301642683
0.0885766655645489        -0.029119461830407173    -0.015534193352970583    0.006446747366760298     -0.07905451425268485     0.03742333306894382      0.014150645865138539     -0.13062849318676722     0.13062849318676722      -0.014150645865138544    -0.03742333306894382     0.07905451425268485
0.08974676670170849       -0.029501230596750378    -0.01573930536430906     0.006528548459042152     -0.08010618345025929     0.037898738936742206     0.014329648735594986     -0.13233457112259647     0.13233457112259647      -0.014329648735594992    -0.037898738936742206    0.08010618345025929
0.09143159481156497       -0.03005565367246566     -0.016035196106665782    0.006635398436242067     -0.08167530191996039     0.03854731276990227      0.014535874720034245     -0.13475848940989688     0.13475848940989688      -0.014535874720034252    -0.03854731276990227     0.08167530191996038
0.09182482683492695       -0.030185241668489536    -0.016104395878933687    0.006659905861017313     -0.08204404752971087     0.038696919144247284     0.01458232774389119      -0.13532329441784932     0.13532329441784932      -0.014582327743891198    -0.038696919144247284    0.08204404752971085
0.09213507776220402       -0.030287615363459183    -0.0161590575412721      0.006680121388498626     -0.08233191779674014     0.0388185436570966       0.014622427450892388     -0.1357728889047291      0.1357728889047291       -0.014622427450892395    -0.0388185436570966      0.08233191779674012
0.10176992181937893       -0.03346854788386719     -0.01785310154799727     0.007310859060026469     -0.09125296417162032     0.04262122736384847      0.015865645116363243     -0.14973983665183205     0.14973983665183205      -0.01586564511636325     -0.04262122736384847     0.09125296417162032
0.10471947566274963       -0.03444233964275773     -0.0183717061025935      0.007503949338620882     -0.09398400023881245     0.04378535833221849      0.016246236376748536     -0.15401559494777947     0.15401559494777947      -0.01624623637674854     -0.04378535833221849     0.09398400023881245
0.10536303344178176       -0.03465592377349294     -0.018485704998797266    0.007543462419844943     -0.09459511286399794     0.04402858222997387      0.01631911712878563      -0.1549428122227574      0.1549428122227574       -0.016319117128785633    -0.04402858222997387     0.09459511286399794
0.10855181395009039       -0.035714217115851016    -0.019050560976033595    0.007739246772603414     -0.09762313006938919     0.04523373839401493      0.016680235786812367     -0.15953710425021644     0.15953710425021644      -0.01668023578681237     -0.04523373839401493     0.09762313006938919
0.11338956964485998       -0.03731023292647702     -0.01989632073510888     0.00803889928606464      -0.10215383091402216     0.04708710079188598      0.017224093496631104     -0.16646502520253922     0.16646502520253922      -0.017224093496631107    -0.04708710079188598     0.10215383091402218
0.11974169563844707       -0.039403467188698804    -0.02100794292995716     0.008450305824904098     -0.10802953986765276     0.04958432888714253      0.01801811771209022      -0.17563198646688544     0.17563198646688544      -0.018018117712090227    -0.04958432888714253     0.10802953986765278
0.12410199991246082       -0.040847880339190984    -0.021776724894088977    0.008714978001615569     -0.11216602335418668     0.05122549800257732      0.0184943260103472       -0.18188584736711116     0.18188584736711116      -0.018494326010347208    -0.05122549800257732     0.1121660233541867
0.13001425051296933       -0.04280849788084263     -0.02282381897966041     0.009066630099728704     -0.11782193230175174     0.05341205922161886      0.01912098157621076      -0.19035497309958133     0.19035497309958133      -0.019120981576210762    -0.05341205922161886     0.11782193230175174
0.13227402342671785       -0.04355788262689239     -0.023224037950844933    0.009201038117939325     -0.11998372663456236     0.05424780387300729      0.019360501070507297     -0.19359203157807692     0.19359203157807692      -0.019360501070507304    -0.05424780387300729     0.11998372663456236
0.13592961523027894       -0.044759177664167156    -0.02386607855488574     0.009420171659811344     -0.12343590435374624     0.05560080630292248      0.019760566975568255     -0.19879727763223695     0.19879727763223695      -0.01976056697556826     -0.05560080630292248     0.12343590435374625
0.13837815876688989       -0.045571542032491946    -0.024298447854468132    0.009562242641460257     -0.12578945706254735     0.05649671106742052      0.020001230064261515     -0.20228739819422936     0.20228739819422936      -0.02000123006426152     -0.05649671106742052     0.12578945706254735
0.14145286401013168       -0.04659165090348559     -0.02484138619008082     0.009740645183892904     -0.1287448796416421      0.05762172397230036      0.02030343749884285      -0.2066700411127853      0.2066700411127853       -0.020303437498842853    -0.05762172397230035     0.1287448796416421
0.14304506581921145       -0.04711566579294311     -0.02512216129493116     0.009822660022288087     -0.13030717538152742     0.058155487790245104     0.02042579238805957      -0.20888845555983204     0.20888845555983204      -0.020425792388059572    -0.05815548779024508     0.13030717538152742
0.14923787049969364       -0.04916920118133035     -0.026221860829322055    0.010170804617116454     -0.13632076638216112     0.06035603834316035      0.021010398593771254     -0.21768720331909266     0.21768720331909266      -0.02101039859377126     -0.06035603834316035     0.13632076638216112
0.1513565017211978        -0.04987568589180487     -0.02659723711385195     0.010289899917230578     -0.13838348345624335     0.061119260110976174     0.021199939226868407     -0.2207026827940879      0.2207026827940879       -0.02119993922686841     -0.061119260110976174    0.1383834834562434
0.1534680678138325        -0.05057580125234633     -0.026972987504464245    0.010390552622499726     -0.1405083545280866      0.06179485048129882      0.02132957049869895      -0.2236327755080843      0.2236327755080843       -0.021329570498698956    -0.06179485048129882     0.1405083545280866
0.15368740070627185       -0.0506470976795824      -0.027011213821880084    0.01040234842348052      -0.14071844313088308     0.061869947587446614     0.021348839800397507     -0.22393723051872716     0.22393723051872716      -0.02134883980039751     -0.061869947587446614    0.1407184431308831
0.15434856752493176       -0.050862016798430595    -0.027126444931969525    0.010437906210191299     -0.1413517435520047      0.0620963236417178       0.021406926039812556     -0.22485499323353503     0.22485499323353503      -0.021406926039812563    -0.0620963236417178      0.1413517435520047
0.1546091704037212        -0.050949645102853006    -0.027173030610565457    0.010450065606652181     -0.14161811961079376     0.06218046080061835      0.021420064052599056     -0.22521864446401113     0.22521864446401113      -0.021420064052599063    -0.06218046080061835     0.14161811961079376
0.15548825824986517       -0.05124524036931278     -0.027330177392858465    0.010491082719336665     -0.14251668203985438     0.062464279437396804     0.021464382317296478     -0.22644534379454764     0.22644534379454764      -0.02146438231729648     -0.062464279437396804    0.1425166820398544
0.16035011328628637       -0.05285856252887653     -0.02818947970696894     0.010769307160225311     -0.14720833553775875     0.06422591457774746      0.021928542704054987     -0.23336279281956113     0.23336279281956113      -0.021928542704054994    -0.06422591457774746     0.14720833553775875
0.16183138474904407       -0.053340067359871096    -0.02844903295534918     0.010848845284904242     -0.14863185244617289     0.06472841699331161      0.022062345285922283     -0.2354226147254067      0.2354226147254067       -0.02206234528592229     -0.0647284169933116      0.14863185244617289
0.16315824048111457       -0.053786227563227984    -0.028687468920169205    0.010910642541565457     -0.1499922917207019      0.06515261853221016      0.022132521800313453     -0.2372774320532254      0.2372774320532254       -0.02213252180031346     -0.06515261853221016     0.1499922917207019
0.16673194323197704       -0.05498789848156802     -0.02932966327693793     0.011077084921688674     -0.15365644710719525     0.06629514681907694      0.0223215325544324       -0.24227312648070448     0.24227312648070448      -0.022321532554432408    -0.06629514681907694     0.15365644710719525
0.16796718646458408       -0.05539527253277084     -0.0295453712615259      0.01114026311530352      -0.1548656063889054      0.06671548374217806      0.022406621180250053     -0.2439877113113334      0.2439877113113334       -0.022406621180250053    -0.06671548374217806     0.1548656063889054
0.17083652464747565       -0.05634334129912946     -0.030051904585524973    0.011284304964063161     -0.15770517649858135     0.06766818869793664      0.022606251014568604     -0.24797961621108647     0.24797961621108647      -0.022606251014568604    -0.06766818869793664     0.15770517649858135
0.1760457359709224        -0.058084309355010466    -0.030981989044127908    0.011512864498010162     -0.1630631278503641      0.06927410956967786      0.02282880641440341      -0.2551660438344453      0.2551660438344453       -0.02282880641440341     -0.06927410956967786     0.1630631278503641
0.1762030342919237        -0.058136925817088944    -0.031010067415202007    0.011520512902207012     -0.16322200227095596     0.06932570099739993      0.022838402220256133     -0.25538610548861196     0.25538610548861196      -0.022838402220256133    -0.06932570099739993     0.16322200227095596
0.1795570063025832        -0.05925883315842468     -0.03160876465550282     0.011683594958259134     -0.16660958045032137     0.07042575218337743      0.023043007482695617     -0.2600783401163944      0.2600783401163944       -0.023043007482695617    -0.07042575218337743     0.16660958045032137
0.18497055890750197       -0.06106355136030544     -0.03256652887729013     0.01194466052937596      -0.17204804723497746     0.07220615820624435      0.023351126028763318     -0.2676053314699851      0.2676053314699851       -0.023351126028763318    -0.07220615820624435     0.17204804723497746
0.1850686448228779        -0.06109662261433237     -0.03258407965340559     0.011948770339606809     -0.17215040283045432     0.07223608762687522      0.023354075089979245     -0.26774056554730874     0.26774056554730874      -0.023354075089979245    -0.07223608762687522     0.17215040283045435
0.1905544130859019        -0.06294623817905318     -0.03356566289332931     0.012178624610171742     -0.1778749665974074      0.0739099861188054       0.02351901076256851      -0.2753039634787813      0.2753039634787813       -0.02351901076256851     -0.0739099861188054      0.1778749665974074
0.1923820693731893        -0.06356359735238622     -0.03389617241269569     0.012253474666104713     -0.17980181327844075     0.07445257613110422      0.023575221197733462     -0.27782961060727834     0.27782961060727834      -0.023575221197733462    -0.07445257613110422     0.17980181327844075
0.1947831566971301        -0.06437193935806579     -0.034326576133409184    0.012350850778764503     -0.1823202040013012      0.07516755343096204      0.02363925279915395      -0.2811270102314172      0.2811270102314172       -0.02363925279915395     -0.07516755343096204     0.1823202040013012
0.20001421463503477       -0.06611685295839781     -0.035262371215916105    0.012556378755964425     -0.18779530454068627     0.076672107292905        0.023778922754810368     -0.28824633458840165     0.28824633458840165      -0.023778922754810368    -0.07667210729290501     0.18779530454068627
0.20397219118566257       -0.06744585205833688     -0.035969775665176604    0.012702498363802373     -0.19199103765699413     0.07779237057635346      0.023827616334065493     -0.29361102456741306     0.29361102456741306      -0.023827616334065493    -0.07779237057635346     0.19199103765699413
0.20555875396931675       -0.06797825628960365     -0.036254892397104256    0.0127650339971412       -0.1936610537819553      0.07825197137645934      0.02386830060067025      -0.29578132575908483     0.29578132575908483      -0.02386830060067025     -0.07825197137645934     0.1936610537819553
0.20785997909032158       -0.06875048037310225     -0.03666843908601596     0.012855738614619876     -0.19608332354577296     0.07891859794663612      0.023927310970322878     -0.2989292324627319      0.2989292324627319       -0.023927310970322878    -0.07891859794663612     0.19608332354577296
0.20873006336278688       -0.0690425984608666      -0.03682385841018582     0.012890486503288775     -0.19699482613913563     0.07917556770433087      0.023948324321979318     -0.3001187181654458      0.3001187181654458       -0.023948324321979318    -0.07917556770433087     0.19699482613913563
0.21007820403654184       -0.06950015957655742     -0.037067977091198905    0.012938636718940123     -0.19844970355095112     0.07955093475527865      0.023958158996242332     -0.3019587973024721      0.3019587973024721       -0.023958158996242332    -0.07955093475527865     0.19844970355095112
0.21209384500663497       -0.07018361423930096     -0.03743132606720489     0.013009791500604682     -0.20062204067779787     0.08011241627940598      0.023965915725431476     -0.30470037268263533     0.30470037268263533      -0.023965915725431476    -0.08011241627940598     0.20062204067779787
0.21396520045600143       -0.07081814520314662     -0.03776866545272012     0.01307585281330478      -0.20263887551123455     0.08063370530135204      0.02397311720508621      -0.30724569801767276     0.30724569801767276      -0.02397311720508621     -0.08063370530135204     0.20263887551123455
0.21718733326466774       -0.07189674301732765     -0.03834307472812968     0.013187071066460544     -0.20607442595320224     0.08151254611610849      0.023984022415575887     -0.31157099448488657     0.31157099448488657      -0.023984022415575887    -0.08151254611610849     0.20607442595320224
0.22011571809363883       -0.07288774579779912     -0.03887229929593491     0.013275791613135423     -0.2092892230308613      0.08226176016033523      0.023944572744748153     -0.3154955559359447      0.3154955559359447       -0.023944572744748153    -0.08226176016033523     0.2092892230308613
0.22133844943154188       -0.0732998098714316      -0.0390929868548652      0.013316828212238332     -0.2106112674585055      0.08258797202722096      0.02394665367068572      -0.3171458931564122      0.3171458931564122       -0.02394665367068572     -0.08258797202722096     0.2106112674585055
0.22177553511387652       -0.0734471090378193      -0.039171875298538564    0.013331497428086151     -0.21108385425890971     0.08270458189236755      0.023947397532321654     -0.3177358336835989      0.3177358336835989       -0.023947397532321654    -0.08270458189236755     0.21108385425890971
0.22564460316654866       -0.07475163302014266     -0.03986600847033855     0.01346336245544414      -0.21524784162952448     0.08375869045104624      0.023948209192506873     -0.3229547412730776      0.3229547412730776       -0.023948209192506877    -0.08375869045104624     0.21524784162952448
0.2316394799576828        -0.0767948891126553      -0.04095622614503225     0.013642379317994228     -0.22188893938843054     0.08529061706219086      0.023848417481762963     -0.33102797393238437     0.33102797393238437      -0.023848417481762963    -0.08529061706219086     0.22188893938843054
0.23165239646471694       -0.07679929367898643     -0.04095855880221345     0.013642758559237578     -0.221903229527663       0.0852939451882829       0.02384812328561773      -0.33104529800156357     0.33104529800156357      -0.02384812328561773     -0.0852939451882829      0.221903229527663
0.23171962984411948       -0.07682222045620728     -0.040970700817455255    0.013644732596826203     -0.2219776129774756      0.08531126884735363      0.023846591927255977     -0.3311354737520852      0.3311354737520852       -0.023846591927255977    -0.08531126884735363     0.2219776129774756
0.23199028502346186       -0.07691324832359787     -0.041019193023813585    0.013652446684452705     -0.22227428898082577     0.08537870431356587      0.02384086916205576      -0.3314938624564474      0.3314938624564474       -0.02384086916205576     -0.08537870431356587     0.22227428898082577
0.23399953065120982       -0.0775893800496083      -0.04137966052436906     0.01370929184705238      -0.22448057428411441     0.08587694591431902      0.023797388862100022     -0.3341549090605334      0.3341549090605334       -0.023797388862100022    -0.08587694591431902     0.22448057428411441
0.23433651905964178       -0.07770422618985534     -0.04144079352344525     0.013718585930877198     -0.22485648922653775     0.08596041553288383      0.02378827191413377      -0.3346051766735553      0.3346051766735553       -0.02378827191413377     -0.08596041553288383     0.22485648922653775
0.23765102131078567       -0.07883381338294392     -0.04204207670704209     0.013809999347448495     -0.2285538594972202      0.08678139403455559      0.023698600745032376     -0.3390338542768081      0.3390338542768081       -0.023698600745032376    -0.08678139403455559     0.2285538594972202
0.24191463571976723       -0.08028706486590759     -0.0428167049558914      0.013927000922796641     -0.23331624090830289     0.08783201855532756      0.023583988827045554     -0.344732248290676       0.344732248290676        -0.023583988827045554    -0.08783201855532756     0.23331624090830289
0.24223482566165735       -0.08039597242655115     -0.04287506124464733     0.013935652214582317     -0.23367451972871509     0.08790936997748962      0.023575847739168918     -0.3451597374453736      0.3451597374453736       -0.023575847739168918    -0.08790936997748962     0.23367451972871509
0.24438940581478766       -0.08112517507810484     -0.04326519525289746     0.013982061621889533     -0.23611768942734396     0.08838301088507547      0.023473482090040788     -0.34797418240246025     0.34797418240246025      -0.023473482090040788    -0.08838301088507547     0.236117689427344
0.24485381554219746       -0.08128433366447073     -0.04334996373336525     0.013993518875645677     -0.2366444830264545      0.08849285163142846      0.023455299373736943     -0.34859263403161994     0.34859263403161994      -0.023455299373736947    -0.08849285163142846     0.23664448302645452
0.2508414449525026        -0.08333636353460733     -0.044442882801935625    0.014141237119908629     -0.24343642699538703     0.08990902714304236      0.023220869816226668     -0.35656632395465604     0.35656632395465604      -0.02322086981622667     -0.08990902714304236     0.24343642699538706
0.2518320225644111        -0.08367513726634689     -0.04462425881596678     0.01416525659231133      -0.24456202461134882     0.09013852445403878      0.023183528284451808     -0.3578840773498394      0.3578840773498394       -0.02318352828445181     -0.09013852445403878     0.24456202461134885
0.25320265876714876       -0.08414320848935788     -0.04487147474745053     0.014189677241068167     -0.24614213225679465     0.09043070170063688      0.02308671622790841      -0.3596595501853399      0.3596595501853399       -0.023086716227908415    -0.09043070170063688     0.24614213225679465
0.2544694860159947        -0.08457565857156475     -0.045102516667682835    0.014211957739137417     -0.24761103618962835     0.0906915980966307       0.023004063816468606     -0.36130669810272764     0.36130669810272764      -0.02300406381646861     -0.0906915980966307      0.24761103618962835
0.2550846217252499        -0.08478704339225965     -0.04521598185673193     0.014226541377288885     -0.2483158668455595      0.09083230672347906      0.022980024294831994     -0.3621281978638705      0.3621281978638705       -0.022980024294831994    -0.09083230672347906     0.2483158668455595
0.2585124452397831        -0.08596497835537617     -0.04584826289204085     0.014307808221386682     -0.25224351250132815     0.09161640092017649      0.022846064850916954     -0.36670597827242146     0.36670597827242146      -0.022846064850916958    -0.09161640092017649     0.25224351250132815
0.2620042489892527        -0.08716351810712392     -0.04648623053354612     0.01436641557759857      -0.25632006550449193     0.09233400692400379      0.022597317696784767     -0.3712513901252804      0.3712513901252804       -0.022597317696784767    -0.09233400692400379     0.25632006550449193
0.26377351345928424       -0.08777216606019637     -0.04680822367566599     0.014395742584805124     -0.2583860328081702      0.0927026314326153       0.022463309245825694     -0.3735519734866111      0.3735519734866111       -0.022463309245825694    -0.0927026314326153      0.2583860328081702