% Model:              Cylinder_potential.mph
% Version:            COMSOL 6.2.0.339
% Date:               Apr 30 2024, 08:05
% Dimension:          1
% Nodes:              478
% Expressions:        11
% Description:        Line graph
% Arc length (m)          Magnetic scalar potential Magnetic scalar potential Magnetic scalar potential Magnetic scalar potential Magnetic scalar potential Magnetic scalar potential Magnetic scalar potential Magnetic scalar potential Magnetic scalar potential Magnetic scalar potential Magnetic scalar potential
0                         8.562820914942404E-6     -1.1742417937593357E-5   1.5356620163462745E-6    -1.19589639174855E-5     -4.621024757724655E-5    5.8495543708036914E-5    -2.424426004826903E-5    2.424426004826903E-5     -5.8495543708032144E-5   4.621024757724655E-5     1.1958963917483982E-5
0.005834416327571095      -0.0019106930415606466   0.0010167907713531925    4.362612835335439E-4     9.740313650724905E-4     0.008616803531315076     -0.0051267132630467      -0.002516058903195878    0.002516058903195878     0.005126713263046706     -0.008616803531315076    -9.740313650724918E-4
0.006479538915472715      -0.002122908838193908    0.0011305176560258553    4.84329728127567E-4      0.0010830542042000485    0.00957468955697568      -0.005700051731955118    -0.0027915836208205064   0.0027915836208205064    0.005700051731955124     -0.00957468955697568     -0.0010830542042000496
0.016169789033184136      -0.0053137706364293266   0.00283738682543758      0.0012198543128135475    0.0027640364547083206    0.024019119000425602     -0.014260284497917199    -0.0069947980478000825   0.0069947980478000825    0.014260284497917202     -0.024019119000425602    -0.002764036454708323
0.02280327286209524       -0.007499036020633712    0.004005746035407899     0.0017226701765600165    0.003909846771196389     0.03390599085373121      -0.020124629441251048    -0.009871514641283772    0.009871514641283772     0.020124629441251048     -0.03390599085373121     -0.003909846771196393
0.024432821619026414      -0.008034808978551692    0.004293679379523459     0.0018450656472194515    0.004191682770344852     0.036330918684551586     -0.021570393506795946    -0.010568842407410793    0.010568842407410793     0.021570393506795953     -0.036330918684551586    -0.004191682770344856
0.028098251795382438      -0.009238233382688681    0.004934063148927803     0.0021183598473417525    0.0047991620707731044    0.0417520956015278       -0.024805216822793748    -0.01214771670796095     0.01214771670796095      0.024805216822793755     -0.0417520956015278      -0.0047991620707731105
0.031021242834786154      -0.010199899574473939    0.0054474590852859744    0.002333223594571252     0.005275472485195099     0.046075070783090824     -0.02740928202652079     -0.01339031627137495     0.01339031627137495      0.0274092820265208       -0.046075070783090824    -0.005275472485195104
0.03590723583263842       -0.011807394847635147    0.006305637887874287     0.00269238404025972      0.0060716601293914815    0.05330123951993204      -0.03176216719785428     -0.01546741219268631     0.01546741219268631      0.03176216719785429      -0.05330123951993204     -0.006071660129391487
0.040591476158211626      -0.013343961460649787    0.0071274010116973985    0.0030419817416972627    0.006862207080581713     0.06023805292318083      -0.03590219898960273     -0.017473646852996426    0.017473646852996426     0.03590219898960273      -0.06023805292318083     -0.006862207080581715
0.041459267408055646      -0.013628478859939126    0.007278884918569333     0.003105262211240855     0.007000745880793203     0.06151466132054968      -0.036672563630622844    -0.017841351809133668    0.017841351809133668     0.036672563630622844     -0.06151466132054968     -0.007000745880793207
0.04192390936664748       -0.013781135689175189    0.007360426882224804     0.003138655823090613     0.007073632560686528     0.06219817531738726      -0.03708892873266235     -0.018035614024038416    0.018035614024038416     0.03708892873266235      -0.06219817531738726     -0.007073632560686531
0.04560368087322093       -0.01499011443102009     0.008006205398135877     0.003403119372096655     0.007650864820754109     0.06761132254483444      -0.04038636756806121     -0.019574090156019172    0.019574090156019172     0.04038636756806121      -0.06761132254483444     -0.007650864820754111
0.048254935813887984      -0.015861085821371378    0.008470922231524349     0.0035944384960319696    0.0080683490359582       0.07151269232144368      -0.04275718435318794     -0.02068715893229759     0.02068715893229759      0.04275718435318794      -0.07151269232144368     -0.008068349035958204
0.04868636255821034       -0.016002395826282878    0.008546453269771059     0.003626056160046123     0.008138792796931945     0.07214837610206341      -0.04313992682169445     -0.020869656483437075    0.020869656483437075     0.04313992682169445      -0.07214837610206341     -0.008138792796931948
0.05482028302072883       -0.018011507088141854    0.009620335190986798     0.004075588412799869     0.009140345047876185     0.08118637340044357      -0.048581666098044624    -0.023464362254522805    0.023464362254522805     0.04858166609804463      -0.08118637340044357     -0.009140345047876185
0.057314792339951307      -0.018832763710296095    0.010059440419877122     0.004258623970171297     0.009547289719724367     0.08487834456090876      -0.050809352799538396    -0.024521702041646033    0.024521702041646033     0.050809352799538396     -0.08487834456090876     -0.00954728971972437
0.06215343255461597       -0.02042354067255509     0.010906902596024663     0.004602478165648127     0.010283539105556325     0.09197770179577669      -0.05515787647059168     -0.026536286219628717    0.026536286219628717     0.05515787647059168      -0.09197770179577669     -0.010283539105556329
0.06697260936734402       -0.022008420093161906    0.011747633529079078     0.004937815684342636     0.010977323138283975     0.0990110035109316       -0.059508478036190506    -0.028525202336457132    0.028525202336457132     0.059508478036190506     -0.0990110035109316      -0.010977323138283982
0.06775379209746162       -0.022264664379063256    0.011883981490715493     0.004992733349432641     0.011093549111750527     0.10015220662800359      -0.06021033983254244     -0.028848317683710614    0.028848317683710614     0.06021033983254244      -0.10015220662800359     -0.01109354911175053
0.0723901320996432        -0.023785480939967157    0.01269321022092013      0.005318671132830491     0.011783353314148044     0.10692527707401672      -0.06437590801137276     -0.03076601574849589     0.03076601574849589      0.06437590801137276      -0.10692527707401672     -0.011783353314148044
0.07820137049916008       -0.025702286506387156    0.013717280063715191     0.005728092726878013     0.012659638085883327     0.11546878411143197      -0.06964404229640785     -0.03316510372914078     0.03316510372914078      0.06964404229640785      -0.11546878411143197     -0.012659638085883333
0.08241156308202353       -0.02708905728294163     0.014455488102575253     0.006014984768324033     0.01324828881513863      0.12160451794690519      -0.07348463980031292     -0.03487158933145362     0.03487158933145362      0.07348463980031292      -0.12160451794690519     -0.013248288815138638
0.08317359157585097       -0.027340057403563888    0.014589100888430575     0.006066911112768232     0.013354832309236883     0.12271506192349248      -0.0741797730213466      -0.03518045659290896     0.03518045659290896      0.0741797730213466       -0.12271506192349248     -0.013354832309236888
0.08995998117855762       -0.029576092692125446    0.015774336426524843     0.006519305576634488     0.01424804620186159      0.1325524169703634       -0.08039797235728752     -0.03790639841121428     0.03790639841121428      0.08039797235728752      -0.1325524169703634      -0.014248046201861597
0.09211940966978444       -0.03029153696650976     0.016155110173159716     0.006663587304551735     0.01453660580466657      0.13570275367070567      -0.08239405523429176     -0.038772092631747274    0.038772092631747274     0.08239405523429176      -0.13570275367070567     -0.01453660580466658
0.09292282127180257       -0.030557716760364034    0.0162967763811556       0.006717267069655736     0.014643963901361669     0.13687483094281788      -0.08313669438557197     -0.039094172655884184    0.039094172655884184     0.08313669438557197      -0.13687483094281788     -0.014643963901361672
0.10383205242243317       -0.03414889317090153     0.018207382101107353     0.007454588514592759     0.01614271401989002      0.15273828670349623      -0.09310157858675412     -0.04349399409685202     0.04349399409685202      0.09310157858675412      -0.15273828670349623     -0.016142714019890023
0.10436372972721197       -0.03432462746739764     0.018301377528925206     0.007489304209962481     0.01621209449183026      0.15351060436142092      -0.09359617068172103     -0.04370233918786956     0.04370233918786956      0.09359617068172103      -0.15351060436142092     -0.016212094491830264
0.111156102094733         -0.03658558779175344     0.01950843670574487      0.007932360151182446     0.017083575138457492     0.16342592630547131      -0.09996704509601173     -0.04637530607100204     0.04637530607100204      0.09996704509601173      -0.16342592630547131     -0.017083575138457496
0.11860228128964836       -0.039025047698755505    0.02080842112082311      0.00837921589886015      0.017892031560398862     0.17399222235542097      -0.10695849516453977     -0.04914169563048229     0.04914169563048229      0.10695849516453977      -0.17399222235542097     -0.017892031560398865
0.11998755748568102       -0.03948049895890352     0.021050406773308692     0.008466155072425659     0.018054842691821615     0.1759768385274358       -0.10824759794803052     -0.04967439788758361     0.04967439788758361      0.10824759794803052      -0.1759768385274358      -0.01805484269182162
0.12099054225022661       -0.039815361615537295    0.021229229393949722     0.008530452499288774     0.018178774947929622     0.1774402214100789       -0.1091966014157687      -0.05006484504638052     0.05006484504638052      0.1091966014157687       -0.1774402214100789      -0.018178774947929625
0.12347630866216228       -0.04064527486436808     0.021672417844858235     0.008689805252909747     0.018485924817477503     0.18106702427494992      -0.1115485822516719      -0.05103251720580043     0.05103251720580043      0.1115485822516719       -0.18106702427494992     -0.01848592481747751
0.12792237529271167       -0.04210630082289639     0.02245121984472736      0.008951629880032792     0.018947577408520412     0.18737278070010613      -0.11575974165984375     -0.05266546163174187     0.05266546163174187      0.11575974165984375      -0.18737278070010613     -0.018947577408520412
0.13741280233386055       -0.045255093063998476    0.02412884928565645      0.009496541409165815     0.019862527365635603     0.20088289962162958      -0.12491056834830311     -0.05610980390769089     0.05610980390769089      0.12491056834830311      -0.20088289962162958     -0.019862527365635606
0.14135822589680597       -0.04656449148953213     0.024827074603609563     0.009713977088060814     0.020208149184007648     0.20646611514213625      -0.12875429843764977     -0.057503667520478835    0.057503667520478835     0.12875429843764977      -0.20646611514213625     -0.02020814918400765
0.14171750554516835       -0.04668399057285325     0.024890691323355994     0.00973415199313844      0.020240700796915194     0.2069766630883283       -0.12910344714322078     -0.057632515148192294    0.057632515148192294     0.12910344714322078      -0.2069766630883283      -0.020240700796915197
0.1428529466654146        -0.047061646734712095    0.025091740951033253     0.009797911287400205     0.02034357453327636      0.20859016147212484      -0.13020687117292323     -0.05803971576592526     0.05803971576592526      0.13020687117292323      -0.20859016147212484     -0.020343574533276364
0.15051869696676806       -0.049599401712650155    0.026448021083544535     0.010228262646399686     0.02105831041093198      0.21945591726153274      -0.13762981609033528     -0.06076779076026548     0.06076779076026548      0.13762981609033528      -0.21945591726153274     -0.02105831041093198
0.15208960990499762       -0.05011690611147107     0.026723883191719738     0.010311077868627942     0.021182148826728777     0.2216497732726132       -0.13916115032358972     -0.061306474122294716    0.061306474122294716     0.13916115032358972      -0.2216497732726132      -0.021182148826728777
0.1525820724239061        -0.05028032344851262     0.026811538493162004     0.010337394333356242     0.0212235459158857       0.2223448397099363       -0.1396456850430864      -0.061475608750964195    0.061475608750964195     0.1396456850430864       -0.2223448397099363      -0.021223545915885704
0.1596688268881161        -0.052631971540179075    0.028072937229018022     0.01071609995405784      0.021819268422927217     0.2323471545836437       -0.14661835495118103     -0.06390953120953546     0.06390953120953546      0.14661835495118103      -0.2323471545836437      -0.021819268422927217
0.16213689935333409       -0.05344947834320115     0.028510451005099267     0.01084835552447766      0.022025818426806093     0.23582373179961091      -0.14903688760378966     -0.06476102576901516     0.06476102576901516      0.14903688760378966      -0.23582373179961091     -0.022025818426806093
0.1632762827644269        -0.05382462327071214     0.028716415008486915     0.010909658116563692     0.022138630950291185     0.23743712403313993      -0.15015985910063043     -0.06513863398221834     0.06513863398221834      0.15015985910063043      -0.23743712403313993     -0.022138630950291185
0.16699110093355074       -0.05506553889087527     0.0293794367647659       0.011093825921527727     0.022382536198658015     0.24264469176215925      -0.15389408438993749     -0.06636807117356378     0.06636807117356378      0.15389408438993749      -0.24264469176215928     -0.022382536198658015
0.16792636727449095       -0.055380125763110265    0.029542404285287927     0.01113714206673305      0.02241552959657539      0.24393603264901662      -0.15483889611515225     -0.06668160693728899     0.06668160693728899      0.15483889611515225      -0.24393603264901662     -0.02241552959657539
0.1696786727444477        -0.05596953251588599     0.029847738568299732     0.011218298754254197     0.02247734569014396      0.24635547575368807      -0.15660908571965448     -0.0672690443438896      0.0672690443438896       0.15660908571965448      -0.2463554757536881      -0.02247734569014396
0.17042073119001414       -0.056218554582461985    0.02998027690448169      0.011255187042431036     0.022524469718245205     0.24739868804809326      -0.15735719170864498     -0.06751702662120307     0.06751702662120307      0.15735719170864498      -0.24739868804809328     -0.022524469718245205
0.17345695512531295       -0.05721835893370726     0.030528847653937097     0.011408517346039381     0.022783894478554216     0.25165733021338343      -0.1603891914450684      -0.0684842442897608      0.0684842442897608       0.1603891914450684       -0.25165733021338343     -0.022783894478554216
0.173997293086321         -0.05739628791920733     0.03062647339121664      0.011435804590122155     0.022830062695723796     0.2524152143725533       -0.1609287776515761      -0.06865637402525343     0.06865637402525343      0.1609287776515761       -0.2524152143725533      -0.022830062695723796
0.17433431889399847       -0.057508882927801125    0.0306865946323195       0.011451399972865603     0.022847617932818594     0.2528831496440233       -0.16127194986109844     -0.06876358185010623     0.06876358185010623      0.16127194986109844      -0.2528831496440233      -0.022847617932818594
0.17493013039334276       -0.05770793415581019     0.03079288004426105      0.011478970289926053     0.02287865298086692      0.25371038960410786      -0.16187862728469943     -0.06895310933854149     0.06895310933854149      0.16187862728469943      -0.25371038960410786     -0.02287865298086692
0.1772204461355613        -0.05847839679770307     0.031191748961009715     0.011577479652907672     0.022928371899253626     0.25684195909006613      -0.16422212186680468     -0.06969146532400775     0.06969146532400775      0.16422212186680468      -0.25684195909006613     -0.022928371899253622
0.17856330170414775       -0.0589290890371757      0.03143147070566861      0.011639798601557484     0.022995428448884282     0.2587117845975873       -0.16559339578512738     -0.07012296036357557     0.07012296036357557      0.16559339578512738      -0.2587117845975873      -0.022995428448884275
0.1819627489675436        -0.06007001925778151     0.032038327800296446     0.011797559409496283     0.023165182523311373     0.26344525955443754      -0.16906478427846727     -0.07121529275265887     0.07121529275265887      0.16906478427846727      -0.26344525955443754     -0.023165182523311373
0.18286915985313482       -0.060368528901190925    0.03220200992729933      0.011840339602482744     0.023230330389447044     0.26470444599421095      -0.16998172917434892     -0.07149238643041489     0.07149238643041489      0.16998172917434892      -0.26470444599421095     -0.023230330389447044
0.18471830340821507       -0.0609817926240523      0.032528105669058484     0.011921581823625021     0.02330705905357083      0.26723422954978027      -0.17186157496078003     -0.07206559553542932     0.07206559553542932      0.17186157496078003      -0.26723422954978027     -0.023307059053570826
0.184762219526675         -0.060996567747089794    0.032535749793404276     0.011923325657257271     0.02330741651506223      0.2672936875034216       -0.1719070822453634      -0.0720791887429959      0.0720791887429959       0.1719070822453634       -0.2672936875034216      -0.023307416515062226
0.18486639717082445       -0.061031536195013496    0.032554337562281925     0.011927816214371946     0.023311205154306472     0.26743734993436064      -0.17201482021938505     -0.07211132456066906     0.07211132456066906      0.17201482021938505      -0.26743734993436064     -0.02331120515430647
0.1894964115335267        -0.06258758539420875     0.033377900603407507     0.012123539151655031     0.023452687628425065     0.27380302920526023      -0.17681471599201992     -0.07353562558481516     0.07353562558481516      0.17681471599201992      -0.27380302920526023     -0.023452687628425062
0.19349267482377236       -0.06393148500738437     0.03409489218698872      0.01228712795005591      0.023570218346420983     0.2792961583759586       -0.1809991347755113      -0.07472680525402628     0.07472680525402628      0.1809991347755113       -0.2792961583759586      -0.023570218346420983
0.19366678436794868       -0.06399003614180035     0.03412613013822689      0.012294255200953385     0.023575338934893428     0.279535483502095        -0.18118144189446794     -0.07477870267273362     0.07477870267273362      0.18118144189446794      -0.279535483502095       -0.023575338934893428
0.19373101133142362       -0.06401145447667608     0.03413761637466862      0.012296717795396631     0.023576811352240136     0.2796226292589446       -0.18124888689577154     -0.07479693101093289     0.07479693101093289      0.18124888689577154      -0.2796226292589446      -0.023576811352240136
0.19458966278403342       -0.06429854488250066     0.0342917101430251       0.012331689868974276     0.02360480013997101      0.2807989796699738       -0.18214546071817958     -0.07504871881182316     0.07504871881182316      0.18214546071817958      -0.2807989796699738      -0.02360480013997101
0.19592961147981902       -0.06474655718561612     0.03453217761479186      0.012386264730796084     0.023648477396327625     0.28263470613879227      -0.1835445882924235      -0.07544164045004104     0.07544164045004104      0.1835445882924235       -0.28263470613879227     -0.023648477396327625
0.20075941975046244       -0.06636825833614815     0.03539684734537775      0.012579442474035139     0.023771795259977427     0.28924482860457024      -0.18860928881228906     -0.07686374453230366     0.07686374453230366      0.18860928881228906      -0.28924482860457024     -0.023771795259977427
0.20101535512247903       -0.06645419356670046     0.03544266688039202      0.012589679115908012     0.02377832997140714      0.2895951042382091       -0.18887767131094496     -0.07693910295585693     0.07693910295585693      0.18887767131094496      -0.2895951042382091      -0.02377832997140714
0.20510545652400544       -0.06782837925593609     0.036176421303707185     0.012751616702464724     0.023878972209108215     0.29519248923285274      -0.19317955561313488     -0.07813396141060956     0.07813396141060956      0.19317955561313488      -0.29519248923285274     -0.023878972209108215
0.20512313396850046       -0.06783431510159638     0.036179583148199905     0.012752329843912344     0.023879438617056308     0.29521669902344205      -0.19319806027214315     -0.07813920013424244     0.07813920013424244      0.19319806027214315      -0.29521669902344205     -0.023879438617056308
0.20543354921250867       -0.06793854832261162     0.036235105015628336     0.0127648525802467       0.023887628722648522     0.2956418220130952       -0.1935230013711215      -0.07823119191932507     0.07823119191932507      0.1935230013711215       -0.2956418220130952      -0.023887628722648522
0.2055474232623354        -0.06797710292306589     0.036255713247716245     0.012769351681453813     0.02389034062283214      0.295798752315096        -0.19364393886346531     -0.07826447282879836     0.07826447282879836      0.19364393886346531      -0.295798752315096       -0.02389034062283214
0.2059165197794313        -0.06810111161425879     0.03632162694336659      0.012782834835890437     0.0238939969451439       0.29629844340217926      -0.19403576471505565     -0.07836868174197958     0.07836868174197958      0.19403576471505565      -0.29629844340217926     -0.0238939969451439
0.20978738940877611       -0.06940164265229269     0.03701289145233124      0.012924238318716948     0.02393234232727608      0.3015389129364471       -0.1981450063867114      -0.07946156422245951     0.07946156422245951      0.1981450063867114       -0.3015389129364471      -0.02393234232727608
0.21536629454479156       -0.07128304076017834     0.03801657952246246      0.013126491235790487     0.023989621990192587     0.30912178503090626      -0.20410985514458224     -0.08102230789613128     0.08102230789613128      0.20410985514458224      -0.30912178503090626     -0.023989621990192583
0.2189276149307262        -0.07249396159549208     0.03866480540733192      0.013252635771926459     0.024017036118717434     0.31399288250068597      -0.20797179632527418     -0.08200405005669423     0.08200405005669423      0.20797179632527418      -0.31399288250068597     -0.024017036118717434
0.2196563174671883        -0.07273984544138692     0.03879569910596043      0.013276275923461714     0.024012510128954282     0.31497189189450214      -0.20876168450680835     -0.0821976972587394      0.0821976972587394       0.20876168450680835      -0.31497189189450214     -0.024012510128954282
0.22529903987707428       -0.07464262233819569     0.0398051360144338       0.013449167598239196     0.023926833759866786     0.3224973231126497       -0.2149039823267361      -0.08366650702604675     0.08366650702604675      0.2149039823267361       -0.3224973231126497      -0.023926833759866786
0.23184259742476648       -0.07686739867377451     0.040989536444378374     0.013644213563387075     0.023810666239134408     0.33128026093423263      -0.22212655242713591     -0.08534304226796219     0.08534304226796219      0.22212655242713591      -0.33128026093423263     -0.023810666239134408
0.23185713576612463       -0.07687233050652799     0.0409921752849369       0.013644669778055065     0.023810543953974986     0.33129986598008715      -0.22214250775564648     -0.0853468142704655      0.0853468142704655       0.22214250775564648      -0.33129986598008715     -0.023810543953974986
0.23230780659911682       -0.0770252113008654      0.041073976120626736     0.013658811875793764     0.023806753263324473     0.33190759846678625      -0.22263710346043603     -0.08546374174302561     0.08546374174302561      0.22263710346043603      -0.33190759846678625     -0.023806753263324473
0.23263704566470633       -0.07713604506126712     0.041132948214661756     0.013668162532631898     0.02379940465197858      0.3323435848970473       -0.222998284635992       -0.08554589560907658     0.08554589560907658      0.222998284635992        -0.3323435848970473      -0.02379940465197858
0.23523178520935714       -0.07801278516534876     0.041601150428085557     0.013741136491861518     0.02374242692100518      0.3357935675824005       -0.2258644756475083      -0.08618666501388693     0.08618666501388693      0.2258644756475083       -0.3357935675824005      -0.02374242692100518
0.23754624129149943       -0.07880167626914783     0.042021937432967574     0.013796975806233985     0.023650362985542975     0.3388570680621345       -0.22848126161226262     -0.08672544346432887     0.08672544346432887      0.22848126161226262      -0.3388570680621345      -0.023650362985542975
0.24465483376729552       -0.08122693599872867     0.04332106836323886      0.013982309978443738     0.02343857300603419      0.348346317000949        -0.23648783717339908     -0.08841990682151568     0.08841990682151568      0.23648783717339908      -0.348346317000949       -0.02343857300603419
0.24687207457495555       -0.08198339866836551     0.0437262802420881       0.014040117553020072     0.02337251360161352      0.3513061082750757       -0.23898516785091511     -0.08894842682254704     0.08894842682254704      0.23898516785091511      -0.3513061082750758      -0.02337251360161352
0.2477783871516251        -0.08229102241568081     0.043890667983208        0.01406289952802407      0.023341557230358648     0.352505646893082        -0.24000245066888945     -0.08916163899383388     0.08916163899383388      0.24000245066888945      -0.35250564689308206     -0.023341557230358648
0.25397157342451143       -0.08441679839403102     0.04502292673923452      0.014194781856177653     0.023014310854352123     0.3606815044304763       -0.24712324958105508     -0.09054394399506908     0.09054394399506908      0.24712324958105508      -0.36068150443047636     -0.023014310854352123
0.2551250094361966        -0.0848128508216197      0.04523332027554592      0.01421982875041628      0.022953574185063465     0.36220497747154234      -0.24844634746821215     -0.09080505581826676     0.09080505581826676      0.24844634746821215      -0.3622049774715424      -0.022953574185063465
0.2552447064476765        -0.08485374844040278     0.045255108255595276     0.014222497931613648     0.022947819612434844     0.362362813374046        -0.2485828299211369      -0.09083216384047434     0.09083216384047434      0.2485828299211369       -0.3623628133740461      -0.022947819612434844
0.25751896726781026       -0.08563080921147112     0.04566908308055934      0.01427321276687948      0.022838481886253675     0.36536171873213824      -0.2511760165971025      -0.09134722024878215     0.09134722024878215      0.2511760165971025       -0.36536171873213824     -0.022838481886253675
0.25805696196255573       -0.08581659776416345     0.04576778036658664      0.014283206124921264     0.022802970071118034     0.36606936112777194      -0.2518037121284019      -0.09146267892825206     0.09146267892825206      0.2518037121284019       -0.36606936112777194     -0.022802970071118034
0.26131024006964765       -0.0869361002739007      0.046361178470095105     0.014341368786960015     0.022576810010323946     0.3703212111059268       -0.2555902608102468      -0.09215414028535614     0.09215414028535614      0.2555902608102468       -0.3703212111059268      -0.022576810010323946
0.2613720936902679        -0.0869573398944884      0.04637249339181976      0.014342588559066366     0.02257315462274795      0.37040251420070147      -0.2556618057281707      -0.09216755384978297     0.09216755384978297      0.2556618057281707       -0.37040251420070147     -0.02257315462274795
0.2653390881092109        -0.08831954723961706     0.04709817817602979      0.014420818888831321     0.02233871560418056      0.3756169045626488       -0.2602503534519983      -0.09302783550647001     0.09302783550647001      0.2602503534519983       -0.3756169045626488      -0.02233871560418056
0.2657996479822966        -0.08847779289017635     0.04718252004589433      0.014429402547506175     0.02230958454735502      0.37622075610806044      -0.2607855357280111      -0.09312563583269436     0.09312563583269436      0.2607855357280111       -0.37622075610806044     -0.02230958454735502
0.2658785139258336        -0.08850519709899013     0.047197057023757656     0.014431105156049739     0.022305197497491713     0.3763259858934522       -0.2608771446450544      -0.09314364375090618     0.09314364375090618      0.2608771446450544       -0.3763259858934522      -0.022305197497491713
0.2676281605080936        -0.08911508893015321     0.04752132390482126      0.014462176334558964     0.022182499192393193     0.3786428549130061       -0.26294544423653443     -0.09351491148407849     0.09351491148407849      0.26294544423653443      -0.3786428549130061      -0.022182499192393193