% Model:              Cylinder_potential.mph
% Version:            COMSOL 6.2.0.339
% Date:               Apr 30 2024, 08:04
% Dimension:          1
% Nodes:              495
% Expressions:        11
% Description:        Line graph
% Arc length (m)          Magnetic scalar potential Magnetic scalar potential Magnetic scalar potential Magnetic scalar potential Magnetic scalar potential Magnetic scalar potential Magnetic scalar potential Magnetic scalar potential Magnetic scalar potential Magnetic scalar potential Magnetic scalar potential
0                         8.56282091494208E-6      -1.1742417937593249E-5   1.5356620163463762E-6    -1.1958963917486692E-5   -4.6210247577247555E-5   5.849554370803751E-5     -2.4244260048269465E-5   2.4244260048269465E-5    -5.849554370803117E-5    4.6210247577247555E-5    1.1958963917485391E-5
0.006124335276662514      0.0020177556413265236    0.001064381876459345     4.627637988264782E-4     0.009079712107337014     0.0010086895420309307    0.0026934208485809115    0.005377601716725182     -0.005377601716725182    -0.0026934208485809032   -0.0010086895420309307   -0.009079712107337018
0.008712340600394039      0.0028687705626953483    0.0015205611293956044    6.543405591563219E-4     0.012916586750202816     0.0014415044994214306    0.0037932199738291575    0.007681862276952235     -0.007681862276952235    -0.0037932199738291493   -0.0014415044994214306   -0.01291658675020282
0.009725103769492755      0.0032011267227130403    0.0016994887272649612    7.295327167923277E-4     0.014418850494390293     0.0016143436035381403    0.0042219181308004936    0.008582588760051666     -0.008582588760051666    -0.004221918130800483    -0.0016143436035381403   -0.014418850494390296
0.012969207828175382      0.00426573689075567      0.0022726333322123185    9.703898008677203E-4     0.01923093298161919      0.0021679854185965206    0.005595132988345252     0.011467814574677425     -0.011467814574677425    -0.0055951329883452425   -0.0021679854185965206   -0.019230932981619195
0.015132143766291928      0.004978617072889287     0.0026531803285461267    0.0011335911080135271    0.022451139563471077     0.0025366712719139366    0.006532057592194287     0.013382410699362857     -0.013382410699362857    -0.006532057592194277    -0.0025366712719139366   -0.02245113956347108
0.021185354087735038      0.006970825680415674     0.0037121401117071956    0.0015922622282570685    0.03144712060898122      0.003563817887318536     0.009174279938738003     0.01870902278292467      -0.01870902278292467     -0.009174279938738       -0.003563817887318536    -0.03144712060898122
0.02971255185910674       0.009773248659593147     0.005204433022328685     0.0022355855475389612    0.04410213857632819      0.005009143937955636     0.012875540442356047     0.026217454196016503     -0.026217454196016503    -0.012875540442356044    -0.005009143937955636    -0.04410213857632819
0.03237351417216115       0.010647584459805947     0.0056700149585602435    0.0024352170873169184    0.04804608214456029      0.005455744305336543     0.014025992393198787     0.02856434544602494      -0.02856434544602494     -0.014025992393198784    -0.005455744305336542    -0.04804608214456029
0.03674732131133728       0.012084724755347527     0.006435289080095462     0.002763350202769915     0.05452871756206108      0.006189818540671031     0.015916983081488256     0.03242191593990177      -0.03242191593990177     -0.015916983081488253    -0.006189818540671029    -0.05452871756206108
0.037740812317425446      0.01241264934625277      0.006609270068050967     0.002837664810299476     0.05600376813785633      0.0063531707528453035    0.01634814772955047      0.03330244965546053      -0.03330244965546053     -0.016348147729550466    -0.006353170752845301    -0.05600376813785633
0.04178191526715514       0.013740958550212746     0.007317125148564896     0.0031336607316861612    0.061967935472864805     0.0070041012720138815    0.018065184581475362     0.03689864961937553      -0.03689864961937553     -0.01806518458147536     -0.007004101272013881    -0.061967935472864805
0.04396118120103037       0.014456600244570943     0.007698360884306411     0.0032936581937847795    0.06518291591720021      0.007356514938916497     0.018992750611361686     0.038833650366922004     -0.038833650366922004    -0.01899275061136168     -0.007356514938916496    -0.06518291591720021
0.048688386032344176      0.016008950888186053     0.008525327150264638     0.0036407203692052853    0.07215676470398713      0.008120961151242985     0.021004801802399227     0.04303100175034488      -0.04303100175034488     -0.02100480180239922     -0.008120961151242985    -0.07215676470398713
0.049642428236181535      0.016322702708104746     0.008692261305894886     0.0037102405421348674    0.07356315150243359      0.008272340670014667     0.021409583667064202     0.04388122716535468      -0.04388122716535468     -0.02140958366706419     -0.008272340670014667    -0.07356315150243359
0.05472560705321082       0.017994386202189416     0.009581693828193431     0.004080647080724541     0.08105644221185726      0.009078897403099667     0.02356627924269658      0.048411265566060964     -0.048411265566060964    -0.02356627924269657     -0.009078897403099667    -0.08105644221185726
0.05499865868441194       0.01808413651977424      0.009629543004879813     0.004100599149424402     0.0814592986518855       0.009122752572788601     0.02368204062260653      0.048654505456490325     -0.048654505456490325    -0.02368204062260652     -0.009122752572788601    -0.0814592986518855
0.05506291112123836       0.018105167641083365     0.009640805271695438     0.004105194195317978     0.08155352787852493      0.009132857314191528     0.023708696248352222     0.048711974315981135     -0.048711974315981135    -0.02370869624835221     -0.009132857314191528    -0.08155352787852493
0.0582479487614435        0.019147694839954467     0.010199083610907699     0.0043329737917409475    0.08622453567959579      0.009633756319778005     0.025030034014149483     0.051560745345668235     -0.051560745345668235    -0.025030034014149473    -0.009633756319778005    -0.08622453567959579
0.0596262148656294        0.019600888649019925     0.010440879580490748     0.004431236848475849     0.08824936343341545      0.00984580883733584      0.02560408595047086      0.05279946864560871      -0.05279946864560871     -0.025604085950470847    -0.00984580883733584     -0.08824936343341545
0.07225650505139844       0.02375292468554633      0.012655038650841064     0.005324296296873265     0.10676815051110887      0.011756451768923638     0.0308379186060624       0.06417378013612278      -0.06417378013612278     -0.030837918606062387    -0.011756451768923634    -0.10676815051110887
0.07787354082605819       0.025591734525588508     0.013639977240765905     0.0057127288361225916    0.11495431611796506      0.012587378015611115     0.033114452673369536     0.06925248542898436      -0.06925248542898436     -0.03311445267336953     -0.012587378015611113    -0.11495431611796506
0.07974857621154968       0.026205551787145454     0.013968761813756638     0.005842392378458305     0.11768695852939398      0.012864751380812268     0.03387438764685408      0.0709478195017276       -0.0709478195017276      -0.03387438764685407     -0.012864751380812264    -0.11768695852939398
0.08551557064994363       0.028112548403103205     0.014989939794421137     0.006234164030946366     0.12613157231325525      0.013681378700842515     0.03619193354672834      0.07625826006568437      -0.07625826006568437     -0.036191933546728325    -0.013681378700842513    -0.12613157231325525
0.09000231830092338       0.029595936101186188     0.015781824403941564     0.006536943677612234     0.13268512012464595      0.014301375719901298     0.037994173700996496     0.08038957070374814      -0.08038957070374814     -0.037994173700996475    -0.014301375719901298    -0.13268512012464595
0.09626604490313656       0.03164385078403101      0.016881977774526127     0.006957977779960661     0.14176554601148306      0.015190142875359048     0.040473679364326165     0.08610172377179778      -0.08610172377179778     -0.04047367936432615     -0.01519014287535905     -0.14176554601148306
0.09676223147672912       0.031806078134300676     0.01696912738466138      0.006991330364113372     0.14248485987903897      0.015260547341836303     0.0406700955710706       0.08655421696613204      -0.08655421696613204     -0.04067009557107058     -0.015260547341836307    -0.14248485987903897
0.0992602428005121        0.03263412671429832      0.01740984982959917      0.007154233327704743     0.1461147362282131       0.015578229371019875     0.041655637250617994     0.08888086960657522      -0.08888086960657522     -0.04165563725061798     -0.015578229371019877    -0.1461147362282131
0.10382839648569302       0.03415260217283864      0.01821323097158364      0.007449844308036906     0.1527442744925758       0.016133865801221316     0.04346488866307387      0.09314552002828061      -0.09314552002828061     -0.04346488866307385     -0.016133865801221316    -0.1527442744925758
0.1078634852695534        0.03549388438740157      0.01892286432864485      0.007710959987002299     0.15860020170874684      0.01662466415914067      0.04506301573687766      0.09691252181272851      -0.09691252181272851     -0.045063015736877654    -0.016624664159140667    -0.15860020170874684
0.10857390373438605       0.03572963035138075      0.019048534209995756     0.007757092365182252     0.15963323279347774      0.016714711387954845     0.04534202753350311      0.09757649387201979      -0.09757649387201979     -0.0453420275335031      -0.016714711387954842    -0.15963323279347774
0.1090234078502038        0.03587648036766606      0.01912735250671525      0.007785626623596507     0.16027752474986387      0.016771603279199725     0.04551340970957228      0.09799251176109186      -0.09799251176109186     -0.04551340970957227     -0.016771603279199722    -0.16027752474986387
0.11207219892447848       0.03687250021076187      0.01966194276089067      0.007979162098140861     0.1646474770967592       0.017157476253711758     0.046675820531415085     0.10081418031163233      -0.10081418031163233     -0.04667582053141507     -0.017157476253711758    -0.1646474770967592
0.11830050973951513       0.03893549241704465      0.020758969558156655     0.008362045306505469     0.17359607473458116      0.017854105066402566     0.049042257385641136     0.10669971228253745      -0.10669971228253745     -0.04904225738564112     -0.01785410506640256     -0.17359607473458116
0.12714548916784868       0.04186170622731969      0.02231964445204689      0.008902971942153637     0.18629423357939462      0.018847408670115876     0.05237636686711317      0.11507045804216559      -0.11507045804216559     -0.05237636686711316     -0.01884740867011587     -0.18629423357939462
0.12738216637222782       0.04193878860752451      0.022361038576836773     0.008917101300301777     0.18662909814676643      0.018873943716668434     0.05246286668574573      0.1152922877443523       -0.1152922877443523      -0.05246286668574572     -0.018873943716668427    -0.18662909814676643
0.12849312428040113       0.04230564971315678      0.022556219989954912     0.008981197002384042     0.18820474740571447      0.018982148553087386     0.0528674274659849       0.1163551713866422       -0.1163551713866422      -0.05286742746598489     -0.018982148553087382    -0.18820474740571447
0.13351899759573724       0.043961818364640304     0.023438148279501324     0.009277262571379957     0.1953471318533044       0.019499858394743212     0.054718242176296394     0.12112903128226485      -0.12112903128226485     -0.05471824217629638     -0.019499858394743205    -0.1953471318533044
0.1364551551900327        0.04493445305394417      0.023959013858971992     0.009448001399835142     0.19953795328414486      0.01980014106836825      0.05578387013031284      0.1239539420854638       -0.1239539420854638      -0.05578387013031283     -0.019800141068368242    -0.19953795328414486
0.14371429741590935       0.047335887275304765     0.02524290332510905      0.009872501164346193     0.20989048918332143      0.020546940082102436     0.058433069232667056     0.13091047986855195      -0.13091047986855195     -0.05843306923266705     -0.02054694008210242     -0.20989048918332143
0.14689679771720512       0.04838188096403995      0.025802011666071448     0.010051099267116986     0.21437419399476218      0.020846670138602436     0.05956212399833341      0.13396539985782632      -0.13396539985782632     -0.0595621239983334      -0.020846670138602426    -0.21437419399476218
0.14880854627187934       0.04900765544737165      0.026140585058349076     0.010153864415181917     0.2170525237305182       0.021021901941031623     0.06020901338042367      0.13582160840906288      -0.13582160840906288     -0.06020901338042366     -0.021021901941031616    -0.2170525237305182
0.15042009728400563       0.049549456849617035     0.026426509726442147     0.010233917615626639     0.2193141133410671       0.021116285942598956     0.06075505498241413      0.13744277241605396      -0.13744277241605396     -0.06075505498241412     -0.021116285942598942    -0.2193141133410671
0.15283257020104637       0.05035747166547791      0.026862086535774793     0.010354453521874236     0.22271901702577712      0.021289130363865514     0.06154649781112835      0.13988338885078322      -0.13988338885078322     -0.06154649781112834     -0.021289130363865507    -0.22271901702577712
0.15358181423688788       0.05060841760455104      0.026997364044690268     0.010391888474292909     0.22377648124034455      0.02134281082214038      0.061792296972202856     0.14064137344600125      -0.14064137344600125     -0.06179229697220284     -0.021342810822140373    -0.22377648124034455
0.1547496765374565        0.05099345934053749      0.027206186625443465     0.01045764553167455      0.22543606068410355      0.021462223321953647     0.06219894093144274      0.14177489643070718      -0.14177489643070718     -0.06219894093144272     -0.02146222332195364     -0.22543606068410355
0.15577781740948002       0.051341552535709475     0.027390355599678836     0.010511340792310937     0.2268995350396992       0.02153332489686131      0.06255740144162615      0.1428088087012117       -0.1428088087012117      -0.06255740144162612     -0.021533324896861307    -0.2268995350396992
0.15799304871414013       0.05208206236114274      0.027789332100014448     0.01062777349138935      0.2300432149878862       0.021714965543315312     0.06330722238779947      0.14502102705677136      -0.14502102705677136     -0.06330722238779944     -0.021714965543315312    -0.2300432149878862
0.1605094003799401        0.05291728898035008      0.028234720983298503     0.010757330558842565     0.23356806314596593      0.02189890722456566      0.06415973724617485      0.14750941867522535      -0.14750941867522535     -0.06415973724617482     -0.02189890722456566     -0.23356806314596593
0.1627617779968893        0.053664897419882215     0.028633387022382557     0.010873296638947844     0.23672314246270346      0.022063552783174678     0.06492282032840804      0.14973676935112068      -0.14973676935112068     -0.06492282032840803     -0.022063552783174678    -0.23672314246270346
0.16776090737475824       0.0553277285494347       0.029510868119586746     0.011124527288283725     0.24368617061076453      0.022375256413025783     0.066620961893244        0.15468995230449467      -0.15468995230449467     -0.066620961893244       -0.022375256413025787    -0.24368617061076453
0.16802492412401615       0.055416287971381005     0.029558032416475307     0.011137376399530054     0.24405617879030816      0.022391026904784186     0.06670798429145623      0.15495716759406764      -0.15495716759406764     -0.06670798429145623     -0.02239102690478419     -0.24405617879030816
0.17079380210065553       0.056343521522007584     0.030056459702475075     0.011272481632043519     0.24794634867961446      0.022572262591584215     0.06760759046476393      0.15776649562326625      -0.15776649562326625     -0.06760759046476392     -0.022572262591584215    -0.24794634867961446
0.17369234377605863       0.05730733193775209      0.03056921871097154      0.011410800697796313     0.251965522799604        0.022736195048595764     0.0685502105337747       0.16067911721723344      -0.16067911721723344     -0.0685502105337747      -0.022736195048595767    -0.251965522799604
0.17948946596510795       0.059238343940709384     0.03159681336463119      0.011689443661410334     0.2600249026209537       0.023071526858116215     0.07044402243316641      0.1665093533296709       -0.1665093533296709      -0.07044402243316641     -0.02307152685811622     -0.2600249026209537
0.18188741873303543       0.060044042012468254     0.032025696854597094     0.011794606554982899     0.2633436008086594       0.02316743275878645      0.07118941968107671      0.16898674836879607      -0.16898674836879607     -0.07118941968107671     -0.023167432758786452    -0.2633436008086594
0.18648100318988864       0.06158745945957125      0.03284727789641682      0.0119960594942625       0.2697009905854429       0.023351152747158054     0.0726173232069419       0.17373251463134282      -0.17373251463134282     -0.0726173232069419      -0.02335115274715806     -0.2697009905854429
0.1886591244359761        0.062313335642745285     0.03323366392791242      0.01209053572857386      0.2726898059835232       0.023436463412542213     0.07328782241604861      0.17596552015493222      -0.17596552015493222     -0.07328782241604863     -0.02343646341254222     -0.2726898059835232
0.190328705634274         0.06286806674877775      0.03353073206185557      0.012165796617621363     0.27499151615360756      0.023519249158496777     0.07380712378247409      0.1776651432126366       -0.1776651432126366      -0.07380712378247409     -0.023519249158496777    -0.27499151615360756
0.19097908022665          0.06308537864826592      0.03364553676779277      0.01219460067760688      0.27588577031033756      0.023544255717274077     0.07401254970358093      0.1783289648894825       -0.1783289648894825      -0.07401254970358093     -0.023544255717274077    -0.27588577031033756
0.1913636212400621        0.06321386665969085      0.03371341629212088      0.012211631389671983     0.2764145077544322       0.023559041115668946     0.07413401000170688      0.17872145663705627      -0.17872145663705627     -0.07413401000170688     -0.023559041115668946    -0.2764145077544322
0.1955546029346062        0.06462319059982359      0.03446521578052705      0.012374117303316012     0.28213849775449235      0.023645735355198094     0.07534720307132997      0.18314555932796422      -0.18314555932796422     -0.07534720307132997     -0.023645735355198094    -0.28213849775449235
0.20072046379813574       0.06635517501773155      0.035394660609278816     0.01258319504751808      0.2892271120533718       0.02380641198244574      0.07685914839769888      0.18856155167322722      -0.18856155167322722     -0.07685914839769888     -0.02380641198244574     -0.2892271120533718
0.20225016026382026       0.06687075766810105      0.03566921896190446      0.012643416238281894     0.291322837175043        0.023839806502638908     0.07730752340361621      0.1901755072687879       -0.1901755072687879      -0.07730752340361621     -0.023839806502638908    -0.291322837175043
0.20372885243984953       0.0673607738515369       0.03593424606071222      0.012701280356464374     0.2933294073110678       0.023886311904920424     0.07772393094679454      0.19171916445935294      -0.19171916445935294     -0.07772393094679454     -0.023886311904920424    -0.2933294073110678
0.20391736071284472       0.06742361756815003      0.03596767312904078      0.012708594684179203     0.29358463326013906      0.023890162987539112     0.07777859448589448      0.19191587578670558      -0.19191587578670558     -0.07777859448589448     -0.023890162987539112    -0.29358463326013906
0.20400428792392516       0.06745263582822741      0.03598322451370987      0.012711655909792747     0.2937015688367553       0.023891025523845796     0.07780222175449615      0.1920083215584134       -0.1920083215584134      -0.07780222175449615     -0.023891025523845796    -0.2937015688367553
0.20533297404894502       0.06789977984926396      0.036219857679927664     0.012757625060247586     0.2954896329793012       0.02389051358224547      0.0781704868997352       0.19342863249732056      -0.19342863249732056     -0.0781704868997352      -0.02389051358224547     -0.2954896329793012
0.20681943423403415       0.06840153347456095      0.03648533332972943      0.01281396427773473      0.297514924049249        0.023908790151005395     0.07860292407087242      0.19500320982737124      -0.19500320982737124     -0.07860292407087242     -0.02390879015100539     -0.297514924049249
0.21306800318929708       0.07051073367896021      0.03760130193781573      0.01305079503101379      0.30602855329542267      0.023985618579582008     0.08042074166852826      0.2016221930473124       -0.2016221930473124      -0.08042074166852826     -0.02398561857958199     -0.30602855329542267
0.2173505676825207        0.07195018842135355      0.03837288086081508      0.01318848260438665      0.3117729498426988       0.02397219615728487      0.08153566467780829      0.2062650890076057       -0.2062650890076057      -0.08153566467780829     -0.02397219615728486     -0.3117729498426988
0.21782874460718496       0.07211153511991418      0.03845878483154347      0.013204258808612424     0.3124164599689084       0.023970319489251872     0.08166375097964748      0.20678238950000902      -0.20678238950000902     -0.08166375097964748     -0.023970319489251865    -0.3124164599689084
0.2186758504605032        0.07239864152807579      0.03861238482962792      0.013233306852294995     0.31356766495421523      0.023973098841912288     0.08189335597644765      0.20770121013585532      -0.20770121013585532     -0.08189335597644765     -0.023973098841912278    -0.31356766495421523
0.22375664089593666       0.07412065476505797      0.03953365033392478      0.013407531858452537     0.3204723879657003       0.023989768905468594     0.08327048596215168      0.21321213309808007      -0.21321213309808007     -0.08327048596215168     -0.023989768905468587    -0.3204723879657003
0.22902388064712814       0.07591022435248901      0.040487871226731705     0.013559323222080429     0.3275213552734948       0.02388045786353884      0.08459412791310456      0.21904676949685142      -0.21904676949685142     -0.08459412791310456     -0.02388045786353883     -0.3275213552734948
0.23229680237479747       0.07702221497045059      0.04108079853602256      0.013653642310551366     0.3319013947911743       0.02381253490937199      0.08541660357503889      0.22267225630676338      -0.22267225630676338     -0.08541660357503889     -0.023812534909371987    -0.3319013947911743
0.23590409479722427       0.07824045906996872      0.04173055185921002      0.013763584448192256     0.33672691151033646      0.023765075230461633     0.08634360035507639      0.22661823592479843      -0.22661823592479843     -0.08634360035507639     -0.023765075230461626    -0.33672691151033646
0.23611319719463209       0.07831116193284487      0.04176839300898023      0.013769790440819833     0.33700666465590967      0.023762016924530262     0.08639630660202836      0.22684834112935107      -0.22684834112935107     -0.08639630660202836     -0.023762016924530255    -0.33700666465590967
0.23647639477482474       0.07843426921456649      0.04183406191877527      0.013778582105807234     0.33748505260868766      0.023747975750421757     0.08648068109603607      0.2272563957622298       -0.2272563957622298      -0.08648068109603607     -0.023747975750421747    -0.33748505260868766
0.23876223290021062       0.07920839387024692      0.04224785504318637      0.013832874632671526     0.340491851400739        0.023658275919751382     0.08700472114162078      0.22982885433936684      -0.22982885433936684     -0.08700472114162078     -0.02365827591975138     -0.340491851400739
0.24247571822960692       0.08047571010718886      0.04292558656718033      0.013930611710828367     0.3454506267592321       0.02354778633047673      0.08789710735615014      0.23400573307260522      -0.23400573307260522     -0.08789710735615014     -0.023547786330476723    -0.3454506267592321
0.2484697534933274        0.08252341382545836      0.044016354141719956     0.014090029411466552     0.35345600772194263      0.023362352420109374     0.08935788287162298      0.24073577243021027      -0.24073577243021027     -0.08935788287162298     -0.023362352420109367    -0.35345600772194263
0.25288824046661984       0.08403400647024918      0.044812739867240735     0.014184944199537032     0.35924600934036854      0.023109983459371965     0.09036957013692422      0.24576645574407244      -0.24576645574407244     -0.09036957013692422     -0.02310998345937196     -0.35924600934036854
0.2539277251276186        0.08438936700943384      0.04500190148237249      0.014205880343011556     0.3606079598380312       0.023050491800296034     0.09059655094379633      0.24696091709393897      -0.24696091709393897     -0.09059655094379633     -0.023050491800296034    -0.3606079598380312
0.25423007569896366       0.08449370617868879      0.045057860136414676     0.014212779268485902     0.36101210984056503      0.023037285125810037     0.0906649490220771       0.24730987569267798      -0.24730987569267798     -0.0906649490220771      -0.023037285125810037    -0.36101210984056503
0.256451018312081         0.08526013868842298      0.04546890933265749      0.01426345593002662      0.36398082909492474      0.022940274341232993     0.0911673730989799       0.249873181654712        -0.249873181654712       -0.0911673730989799      -0.022940274341232993    -0.36398082909492474
0.2627985371326954        0.08744197275926106      0.04663378774651966      0.014378505074707199     0.37229932905690977      0.022531438019865686     0.09249660257779188      0.2572712884592523       -0.2572712884592523      -0.09249660257779188     -0.022531438019865686    -0.37229932905690977
0.26410552782095126       0.08789112328584288      0.04687377221321178      0.014401357131291422     0.3740089917364867       0.022444498593115286     0.09276635845721606      0.2587981346861555       -0.2587981346861555      -0.09276635845721606     -0.022444498593115286    -0.3740089917364867
0.2643880108981801        0.08798911191609282      0.046926516914554475     0.01440705248900833      0.37438598453188227      0.02242953686751114      0.09282688304455546      0.25912956461981573      -0.25912956461981573     -0.09282688304455546     -0.02242953686751114     -0.37438598453188227
0.2644313895800305        0.08800415925152354      0.04693461649928459      0.01440792707984347      0.3744438763202746       0.022427239314180582     0.09283617732456713      0.259180459681527        -0.259180459681527       -0.09283617732456713     -0.022427239314180582    -0.3744438763202746
0.2652117589372255        0.08827379307180827      0.047079107458121376     0.014419998227510004     0.3754649014280206       0.022369729140787668     0.09299025667929232      0.2601049156079407       -0.2601049156079407      -0.09299025667929232     -0.022369729140787668    -0.3754649014280206
0.2654467458494716        0.08835495794787725      0.04712244038673064      0.01442362859611794      0.37577175144041813      0.022351919648909247     0.09303710912003424      0.26038272267147466      -0.26038272267147466     -0.09303710912003424     -0.022351919648909247    -0.37577175144041813
0.2675657376543516        0.08908673043794416      0.04751565435693917      0.014457515780503676     0.3785504870687204       0.022203565316943986     0.09345656092708537      0.2628903608246911       -0.2628903608246911      -0.09345656092708537     -0.022203565316943986    -0.3785504870687204
0.2708615663045237        0.09022491168650582      0.04812724986461248      0.014510223088250205     0.3828724653198498       0.021972818573826686     0.09410896613217487      0.26679068061384825      -0.26679068061384825     -0.09410896613217487     -0.021972818573826686    -0.3828724653198498
0.27257268736762474       0.09081126096179293      0.04844044778581194      0.014536426675434713     0.3850895719827604       0.0218445281355889       0.09444688526788872      0.26879815857928274      -0.26879815857928274     -0.09444688526788872     -0.0218445281355889      -0.3850895719827604
0.27317763335631395       0.09101855759889524      0.04855117509212658      0.014545690634191557     0.3858734030109363       0.021799172615355588     0.09456635245817678      0.2695078779374039       -0.2695078779374039      -0.09456635245817678     -0.021799172615355588    -0.3858734030109363
0.2758296224172662        0.08983677206808599      0.04783721918898641      0.014580112971621453     0.3815056535896169       0.022158565317273116     0.0944823384556984       0.2648647498166453       -0.2648647498166453      -0.0944823384556984      -0.022158565317273112    -0.3815056535896169
0.27618646861726354       0.0896777534348305       0.047741150749356503     0.014584744770631389     0.38091793820025605      0.022206924460934127     0.09447103370411689      0.26423998003520494      -0.26423998003520494     -0.09447103370411689     -0.022206924460934127    -0.38091793820025605
0.27792437416926524       0.08890198507145974      0.0473553395037892       0.014611892333273308     0.37831755798738026      0.02270961770154134      0.094185520964645        0.26142241932119387      -0.26142241932119387     -0.094185520964645       -0.02270961770154134     -0.37831755798738026