% Model:              Cylinder_potential.mph
% Version:            COMSOL 6.2.0.339
% Date:               Apr 30 2024, 08:05
% Dimension:          1
% Nodes:              490
% Expressions:        11
% Description:        Line graph
% Arc length (m)          Magnetic scalar potential Magnetic scalar potential Magnetic scalar potential Magnetic scalar potential Magnetic scalar potential Magnetic scalar potential Magnetic scalar potential Magnetic scalar potential Magnetic scalar potential Magnetic scalar potential Magnetic scalar potential
0                         8.562820914942621E-6     -1.1742417937593249E-5   1.535662016346898E-6     -1.195896391748344E-5    -4.62102475772446E-5     5.8495543708038215E-5    -2.4244260048270766E-5   2.4244260048270766E-5    -5.849554370803274E-5    4.62102475772446E-5      1.1958963917482572E-5
0.004123032430869343      0.0013630107798229334    7.100783432847173E-4     -3.12399957225821E-4     0.003606656760596758     -0.0018453863586949653   -6.538132991115862E-4    0.006105856418403318     -0.006105856418403318    6.538132991115927E-4     0.0018453863586949653    -0.00360665676059676
0.00432284547395466       0.0014283710831197566    7.452310888487867E-4     -3.2752134815607894E-4   0.0037823500401615792    -0.001931134292317437    -6.89036492931179E-4     0.006402520825410204     -0.006402520825410204    6.89036492931186E-4      0.001931134292317437     -0.003782350040161581
0.009506824215318283      0.0031240883275397606    0.0016572390483436323    -7.198329205734785E-4    0.008340562117816528     -0.004155791192342504    -0.0016028721722453052   0.014099225482404353     -0.014099225482404353    0.001602872172245313     0.004155791192342504     -0.00834056211781653
0.011876430908708357      0.0038992495049011023    0.0020736996230982007    -8.996289446965649E-4    0.01042108210031057      -0.005175915919293827    -0.0020211156382786734   0.01761811365788309      -0.01761811365788309     0.002021115638278682     0.005175915919293827     -0.010421082100310572
0.016297883539994486      0.005352486971061814     0.0028472364768383886    -0.0012292730271179421   0.01432959126416705      -0.007080356620080196    -0.0027538275968633204   0.024163775481110587     -0.024163775481110587    0.0027538275968633313    0.007080356620080196     -0.014329591264167052
0.016446204071608735      0.005401279321582216     0.0028732161504570683    -0.001240402821606848    0.014460595808108268     -0.007144521478220583    -0.002778701094634181    0.024383818380963054     -0.024383818380963054    0.0027787010946341917    0.007144521478220583     -0.014460595808108271
0.026399543892384525      0.008675585583152476     0.0046166330405211994    -0.0019872894830677843   0.023251912355597436     -0.011450429977012446    -0.0044478858875298104   0.039150228220139714     -0.039150228220139714    0.004447885887529822     0.011450429977012446     -0.023251912355597436
0.026778513457283774      0.008800148699565332     0.004682815139470517     -0.002015636231003829    0.023586197893526915     -0.011614396904734389    -0.004510692943296228    0.03971128774155754      -0.03971128774155754     0.004510692943296239     0.011614396904734389     -0.023586197893526915
0.02704374467201713       0.008887379709598579     0.00472929011328149      -0.00203506336339521     0.02382237630546081      -0.011727142532933485    -0.0045533643742281795   0.04010288321262249      -0.04010288321262249     0.004553364374228191     0.011727142532933485     -0.02382237630546081
0.027112419709125167      0.00890993638547982      0.00474131865343571      -0.00204008248264919     0.023883498800670023     -0.011756246741249234    -0.004564413119944275    0.040204158661863554     -0.040204158661863554    0.004564413119944286     0.011756246741249234     -0.023883498800670023
0.03467882703722339       0.011395162529833733     0.006066586730481405     -0.002593073821324016    0.030617789965815635     -0.014962860153519275    -0.005781730417072847    0.05136238053640778      -0.05136238053640778     0.005781730417072854     0.014962860153519275     -0.030617789965815635
0.04331177384189175       0.014230818158221983     0.007577563526016287     -0.0032252402417858378   0.03829336592734949      -0.01862990670553841     -0.007172015228748286    0.06409528786163622      -0.06409528786163622     0.007172015228748289     0.01862990670553841      -0.03829336592734949
0.052638855818599894      0.017296319609370878     0.0092155096650622       -0.003893746503976022    0.04666418219802429      -0.02252109623945919     -0.008628875792348965    0.0778141542298325       -0.0778141542298325      0.008628875792348969     0.02252109623945919      -0.04666418219802429
0.053788697772028986      0.017674730098681063     0.009418381076672287     -0.003978196496784264    0.04769181744024196      -0.02300710295448227     -0.008818469019791816    0.07951738941451608      -0.07951738941451608     0.008818469019791818     0.02300710295448227      -0.04769181744024196
0.054213475896646685      0.01781452365683529      0.009493326452865328     -0.004009394270932343    0.04807144958853722      -0.023186645038803917    -0.008888509128654798    0.080146603755996        -0.080146603755996       0.0088885091286548       0.023186645038803917     -0.04807144958853722
0.05547677827249063       0.018230727776484087     0.009715567742055033     -0.004100884250440266    0.04920462177737223      -0.023718289328564086    -0.009088784674958017    0.08201169578089439      -0.08201169578089439     0.009088784674958019     0.023718289328564086     -0.04920462177737223
0.061067946525433466      0.020069530759918065     0.010700403421596503     -0.004508183473544304    0.05420753789044843      -0.02607058514922378     -0.009994882639130636    0.0902730056788029       -0.0902730056788029      0.009994882639130637     0.02607058514922378      -0.05420753789044843
0.07261626001603907       0.02386429679195768      0.012724328352622088     -0.005321794171074829    0.06461440195748232      -0.030842785210348382    -0.011731568158250253    0.107188755326081        -0.107188755326081       0.01173156815825026      0.030842785210348382     -0.06461440195748232
0.07548269425108424       0.02480620465383495      0.013226691551904172     -0.005523742408737206    0.0671975143284336       -0.03202730428690617     -0.012162634982991477    0.1113874535983313       -0.1113874535983313      0.012162634982991482     0.03202730428690617      -0.0671975143284336
0.07732777721452726       0.025415572404460997     0.01354885009318631      -0.0056511457789071365   0.06887311197285237      -0.03278917764499158     -0.012419988586265513    0.11408227820410952      -0.11408227820410952     0.01241998858626552      0.03278917764499158      -0.06887311197285237
0.0776359539738826        0.025516853361227797     0.013602578088795824     -0.005673447254446682    0.06914765197105634      -0.03291976147385482     -0.012467816561718637    0.11453523000662985      -0.11453523000662985     0.012467816561718643     0.03291976147385482      -0.06914765197105634
0.07810166863319007       0.025669908466270923     0.013683771476716764     -0.0057071490952496      0.06956253498169374      -0.03311709888338993     -0.012540093878606872    0.11521972774369059      -0.11521972774369059     0.012540093878606879     0.03311709888338993      -0.06956253498169374
0.08244989419543178       0.027101821937269184     0.014451149795501071     -0.006004845280862162    0.07353771213759293      -0.034869575611483766    -0.013169186635413534    0.12157647438449026      -0.12157647438449026     0.01316918663541354      0.034869575611483766     -0.07353771213759293
0.08395039122851902       0.027596124427926184     0.014716191965756091     -0.0061088208800215565   0.0749055412330344       -0.03547895647867029     -0.013391610561502171    0.12377610827320688      -0.12377610827320688     0.01339161056150218      0.03547895647867029      -0.0749055412330344
0.08688411445038972       0.02856294992691205      0.01523369162072894      -0.006311343183896934    0.07758160198042319      -0.03667019772722499     -0.013820547743950489    0.12807234745159865      -0.12807234745159865     0.013820547743950497     0.03667019772722499      -0.07758160198042319
0.08983935643612276       0.02953686705930549      0.015754987118742195     -0.0065153509822461824   0.08027729154585284      -0.037870176691369106    -0.014252631166600365    0.1324000994038223       -0.1324000994038223      0.014252631166600374     0.037870176691369106     -0.08027729154585284
0.09115452312532625       0.029971161367429174     0.015989791979948705     -0.006601008437665564    0.08150766492404221      -0.03837698054567447     -0.014431086955650053    0.1343157324253667       -0.1343157324253667      0.014431086955650062     0.03837698054567447      -0.08150766492404221
0.09199885764378121       0.03024884202602294      0.01613792468567516      -0.0066575979250870065   0.08228106640872335      -0.03871430169536841     -0.014546481705327657    0.13554184980941938      -0.13554184980941938     0.014546481705327664     0.03871430169536841      -0.08228106640872335
0.09262768168403013       0.030456430941448925     0.016247580522324844     -0.006700649080351141    0.08285300712846781      -0.03897271663732787     -0.014632476005481277    0.13645819977127696      -0.13645819977127696     0.014632476005481286     0.03897271663732787      -0.08285300712846781
0.09448376376472677       0.03106916525408893      0.01657124854457271      -0.006827721954039974    0.08454118832573607      -0.03973547269061961     -0.014886302941700198    0.1391629639580559       -0.1391629639580559      0.014886302941700204     0.03973547269061961      -0.08454118832573607
0.10381087406561648       0.03414296509187196      0.018207103613156774     -0.007450355061162078    0.09310582077856591      -0.0434660395889219      -0.016136800900374743    0.1527086612678626       -0.1527086612678626      0.01613680090037475      0.0434660395889219       -0.09310582077856591
0.10925300945149742       0.035923006685978184     0.019150965724999136     -0.0078108818432958815   0.09805538317377024      -0.04563664357014248     -0.016850411176224597    0.16054243792013737      -0.16054243792013737     0.0168504111762246       0.04563664357014248      -0.09805538317377024
0.11375580518715644       0.037417077163862965     0.019942252340945293     -0.008095023758313703    0.10228081631730698      -0.04738749233814484     -0.017372697728364795    0.16704100638381666      -0.16704100638381666     0.0173726977283648       0.04738749233814484      -0.10228081631730698
0.11924501757813878       0.03924635457796277      0.020916389834861823     -0.008434877744257201    0.10750236768348218      -0.04948305062836886     -0.017995971325688757    0.17498138963753984      -0.17498138963753984     0.017995971325688764     0.04948305062836886      -0.10750236768348218
0.12107917160270477       0.03985348455633564      0.021239423158941118     -0.008562440115645036    0.10917547812691446      -0.05023846009842804     -0.01826106082673226     0.1776749990520748       -0.1776749990520748      0.01826106082673227      0.05023846009842804      -0.10917547812691446
0.12679213492099073       0.04173614949085949      0.02224720395125736      -0.008895847493652917    0.11463052086087935      -0.052314077102558545    -0.018852702846664803    0.18579730081010282      -0.18579730081010282     0.018852702846664814     0.052314077102558545     -0.11463052086087935
0.12883128664739452       0.04240813690572459      0.022606915335349493     -0.00901485197391702     0.11657761192182953      -0.05305493570106877     -0.019063880090267417    0.1886964277131658       -0.1886964277131658      0.019063880090267424     0.05305493570106877      -0.11657761192182953
0.13054036198360883       0.04297548723485574      0.022907505491150212     -0.009119872450075561    0.1181940011428598       -0.05370794779656306     -0.019251031804041453    0.19115298074346446      -0.19115298074346446     0.01925103180404146      0.05370794779656306      -0.1181940011428598
0.1317350415160675        0.04337450957101233      0.02311975927270906      -0.009200144432176646    0.1193077192314452       -0.054190319052604054    -0.01941083640480914     0.19290887468885848      -0.19290887468885848     0.019410836404809142     0.054190319052604054     -0.1193077192314452
0.1322812188810536        0.04355612909587937      0.02321694999447131      -0.009230731828605036    0.11984018086075247      -0.054384335522764934    -0.019461519106075378    0.19368603548959287      -0.19368603548959287     0.019461519106075385     0.054384335522764934     -0.11984018086075247
0.13437320916271614       0.044253194813164344     0.02358908664433217      -0.009337854197812126    0.12192223276807662      -0.05509054648458068     -0.019612287097916355    0.19662506635057375      -0.19662506635057375     0.01961228709791636      0.05509054648458068      -0.12192223276807662
0.1418357063890789        0.04672010295907726      0.024900025181579553     -0.00977228630086468     0.1290511362594344       -0.057829275576874596    -0.0203490148300429      0.2072294266663519       -0.2072294266663519      0.020349014830042915     0.057829275576874596     -0.1290511362594344
0.14239091142943022       0.04690476983503931      0.02499855035355367      -0.009807796045803731    0.12957400654752466      -0.058045072792632525    -0.020417295573797366    0.20803637491395457      -0.20803637491395457     0.020417295573797376     0.05804507279263253      -0.12957400654752466
0.1511666868506801        0.04981077332857801      0.02655834421035189      -0.010270887996547937    0.1382130273020199       -0.06103006601229211     -0.021137037960091407    0.22038013127440348      -0.22038013127440348     0.02113703796009141      0.06103006601229211      -0.1382130273020199
0.15121576455129948       0.04982702488044765      0.026567067211141826     -0.010273477794830926    0.138261340214997        -0.06104675930679354     -0.021141063051853905    0.22044916257364452      -0.22044916257364452     0.021141063051853908     0.06104675930679354      -0.138261340214997
0.15272784265072856       0.05032784956676782      0.026837732613373952     -0.010357315071112469    0.13973963668920755      -0.06157176157786367     -0.02128675899103613     0.22259815725810744      -0.22259815725810744     0.02128675899103613      0.06157176157786367      -0.13973963668920755
0.1539557869696857        0.05074158606207679      0.02705642009502377      -0.01042328853755478     0.1409592782590057       -0.062007065989301384    -0.02137924231113687     0.22434558655944406      -0.22434558655944406     0.021379242311136873     0.062007065989301384     -0.1409592782590057
0.15992169811096685       0.05272849132164789      0.028117144080767615     -0.010728035779647257    0.1468962717670096       -0.06401769351958198     -0.0218065927175961      0.2327205580041877       -0.2327205580041877      0.021806592717596107     0.06401769351958198      -0.1468962717670096
0.1629023633539863        0.05371839211311941      0.02864647064351751      -0.010884008034560872    0.14984016401854786      -0.06503340443392981     -0.0220386598425572      0.2369122282950349       -0.2369122282950349      0.022038659842557207     0.06503340443392981      -0.14984016401854786
0.16837435437101347       0.055535829241113874     0.02961690921061966      -0.011161756986783981    0.15527535816695082      -0.0668679587975047      -0.02242609709676718     0.24456941406122268      -0.24456941406122268     0.022426097096767184     0.0668679587975047       -0.15527535816695082
0.17006799016752405       0.056098125742490734     0.029916031952638464     -0.011240341435022573    0.15698298160280658      -0.06740952136715637     -0.022513210113024255    0.2469057130829872       -0.2469057130829872      0.02251321011302426      0.06740952136715637      -0.15698298160280658
0.17831525783880633       0.05885195114390682      0.031379728601308075     -0.011637762113648323    0.16529203963714456      -0.0701157649384827      -0.02298633197070392     0.2583941365463312       -0.2583941365463312      0.02298633197070393      0.0701157649384827       -0.16529203963714456
0.1790888213209166        0.05911016549437481      0.03151739945605123      -0.011674843836054312    0.16607315401268602      -0.07036750796481317     -0.02303124272362137     0.25947190470112064      -0.25947190470112064     0.023031242723621382     0.07036750796481317      -0.16607315401268602
0.1885712184077916        0.06227789996487119      0.03321688830671906      -0.012081435840492042    0.17588072148793138      -0.07323087837155334     -0.02342060835238303     0.27253220821186774      -0.27253220821186774     0.023420608352383042     0.07323087837155334      -0.17588072148793138
0.18863742503063324       0.06230010605600119      0.03322877985182213      -0.012084502539821063    0.1759485415081845       -0.07325188271582024     -0.023424137602748293    0.27262456182675304      -0.27262456182675304     0.023424137602748304     0.07325188271582024      -0.1759485415081845
0.18982440910426374       0.06269822750333666      0.03344197717321331      -0.012139483795561448    0.17716445134406744      -0.0736284586692792      -0.02348741169521243     0.27428032170855904      -0.27428032170855904     0.023487411695212443     0.0736284586692792       -0.17716445134406744
0.19055023761140458       0.06294220330225053      0.03357169545149073      -0.012172648692012364    0.1779088981909238       -0.07385991501807834     -0.02352127451802062     0.27529008772702274      -0.27529008772702274     0.023521274518020635     0.07385991501807834      -0.1779088981909238
0.19130897819363918       0.06319744395909312      0.033708248646303264     -0.01220347999541207     0.17870571387544773      -0.07408406196092471     -0.023543778002371903    0.2763335538387443       -0.2763335538387443      0.023543778002371913     0.07408406196092471      -0.17870571387544773
0.19274596760203805       0.06368194686680667      0.03396601876475861      -0.012261035541054144    0.18021780786367259      -0.07450997960355409     -0.023578304724879092    0.2783060921921057       -0.2783060921921057      0.023578304724879103     0.07450997960355409      -0.18021780786367259
0.19377133512171058       0.06402766517332498      0.03414995130139487      -0.012302104449936478    0.18129676645108864      -0.07481389424221126     -0.023602941357280614    0.2797136020505805       -0.2797136020505805      0.02360294135728063      0.07481389424221126      -0.18129676645108864
0.20201165390189252       0.06678773980840096      0.03561738177929282      -0.012643086327413258    0.18985527964502738      -0.07729567958857643     -0.023849011030729644    0.2909999702643334       -0.2909999702643334      0.023849011030729658     0.07729567958857643      -0.18985527964502738
0.20485201454776863       0.06774468077509387      0.03612516456709593      -0.01277353021954614     0.19277073437329093      -0.07820798872708448     -0.02398025302928467     0.29495897612966004      -0.29495897612966004     0.02398025302928468      0.07820798872708448      -0.19277073437329093
0.20583221052397782       0.06807412367808079      0.03630179146363048      -0.012811258095726261    0.1938085893641479       -0.07848790534817515     -0.02400215941763496     0.29629865412995804      -0.29629865412995804     0.02400215941763497      0.07848790534817515      -0.1938085893641479
0.20607311187541433       0.06815502368904196      0.036345180575629396     -0.012818356364798578    0.19407216364577773      -0.07854793111039005     -0.023998919807998603    0.29661901456416634      -0.29661901456416634     0.023998919807998616     0.07854793111039005      -0.19407216364577773
0.20906874356551836       0.06916102317854207      0.03688472839524232      -0.012906624029762344    0.19734973542376166      -0.07929435729040656     -0.023958634947692223    0.30060272766186047      -0.30060272766186047     0.023958634947692237     0.07929435729040656      -0.19734973542376166
0.21198992087436253       0.07015107544399489      0.037412316450158474     -0.013008246112483964    0.20050611578852928      -0.08009818598745021     -0.023967782912421545    0.3045720846884011       -0.3045720846884011      0.023967782912421562     0.08009818598745021      -0.20050611578852928
0.2142005435170811        0.07089355026593022      0.03780641124012625      -0.013101827449600843    0.20279902445383574      -0.08077517660988504     -0.02403944298692174     0.30761364405064257      -0.30761364405064257     0.02403944298692176      0.08077517660988504      -0.20279902445383574
0.2153783418200571        0.07128880756332315      0.038016282236088675     -0.013141057430280047    0.2040622321137921       -0.08109299813950044     -0.02403546130273997     0.3091906915560325       -0.3091906915560325      0.02403546130273999      0.08109299813950044      -0.2040622321137921
0.21612583322914408       0.0715390532790248       0.03815053968234049      -0.013160397210812724    0.20488813676182013      -0.08126807635427902     -0.024015101332222802    0.310171314448322        -0.310171314448322       0.02401510133222283      0.08126807635427902      -0.20488813676182013
0.21764637303983483       0.07205281466227795      0.0384243998129252       -0.013207831226759144    0.2065475038562949       -0.08166375479281687     -0.023998895021256305    0.3122101536703681       -0.3122101536703681      0.02399889502125633      0.08166375479281687      -0.2065475038562949
0.22045422538521023       0.07300077615142067      0.038935472246355955     -0.013294636466814348    0.20962942317465175      -0.08237368143103083     -0.02398341030348395     0.3159865149091666       -0.3159865149091666      0.023983410303483967     0.08237368143103083      -0.20962942317465175
0.22120463803502072       0.07325382881469034      0.039070056320287296     -0.013321827507173596    0.2104305165615481       -0.08258479869721312     -0.023989821360175634    0.3170051366189369       -0.3170051366189369      0.023989821360175648     0.08258479869721312      -0.2104305165615481
0.22176635612581183       0.07344325027356008      0.039170798637302724     -0.013342181240924057    0.21103017149533207      -0.08274282959890822     -0.02399462032848422     0.31776762142272463      -0.31776762142272463     0.023994620328484234     0.08274282959890822      -0.21103017149533207
0.22223643671984963       0.07360474199864135      0.03925690396298771      -0.013356240734900177    0.21155523294664508      -0.08286373504792026     -0.02398619083128115     0.31840515882584663      -0.31840515882584663     0.02398619083128116      0.08286373504792026      -0.21155523294664508
0.22252759504744038       0.07370476667779376      0.03931023584467157      -0.013364948898574192    0.21188044529530545      -0.08293862141586959     -0.023980969772723945    0.31880003648389904      -0.31880003648389904     0.02398096977272396      0.08293862141586959      -0.21188044529530545
0.22542112308503282       0.0746824626721145       0.039824218003510076     -0.013466083183475742    0.2149732466208562       -0.08375660406760169     -0.023972061400204248    0.32270191208866217      -0.32270191208866217     0.02397206140020426      0.08375660406760169      -0.2149732466208562
0.22696409563212008       0.07520500941236573      0.04010216598220151      -0.013512200027134873    0.21666771666279647      -0.08415232098666636     -0.023945279230412612    0.3247653168798755       -0.3247653168798755      0.02394527923041262      0.08415232098666636      -0.21666771666279647
0.23044229308204778       0.07638636078617217      0.04074254847664101      -0.013602797168917886    0.2205891783265958       -0.08495626481809287     -0.02386611253325023     0.329411555677939        -0.329411555677939       0.023866112533250237     0.08495626481809287      -0.2205891783265958
0.23113908621502535       0.07662093539114043      0.040868172607600256     -0.013621826842989728    0.2213590812331227       -0.08512466033143899     -0.023849954412478835    0.33033369597704065      -0.33033369597704065     0.023849954412478842     0.08512466033143899      -0.2213590812331227
0.2365299368680428        0.07845520933251622      0.04184464921442988      -0.013783581082929236    0.2273100419766052       -0.08651079535345975     -0.02375785330997414     0.33757869064003915      -0.33757869064003915     0.023757853309974146     0.08651079535345975      -0.2273100419766052
0.24088579288780437       0.07993108175799474      0.04263289539866558      -0.013894290359579734    0.23218368827366725      -0.0875406387583117      -0.023613684118326178    0.34333801115030527      -0.34333801115030527     0.023613684118326192     0.0875406387583117       -0.2321836882736673
0.24132807946837442       0.08008093945886022      0.04271293264229607      -0.013905531600609047    0.2326785504421724       -0.08764520739326843     -0.02359904541160396     0.3439228032470449       -0.3439228032470449      0.023599045411603965     0.08764520739326843      -0.23267855044217245
0.2424240233658436        0.08045151881904306      0.042908551148060615     -0.01393606303541422     0.23388443894061103      -0.08792163633556115     -0.023566867947752625    0.34537294322392487      -0.34537294322392487     0.02356686794775264      0.08792163633556115      -0.23388443894061106
0.24469850865824516       0.08123372571119974      0.04332577266749659      -0.013996237969896302    0.236459817545304        -0.08847508529949494     -0.023494818459675493    0.3484297213044745       -0.3484297213044745      0.0234948184596755       0.08847508529949494      -0.23645981754530407
0.24715356215812018       0.0820766789226062       0.0437744185075068       -0.01405942820790846     0.23923890053609892      -0.08906781515432585     -0.023407610508941863    0.3517143261993667       -0.3517143261993667      0.023407610508941874     0.08906781515432585      -0.23923890053609898
0.24841375847235256       0.08250412526555227      0.044000064089149665     -0.014087790486762224    0.24065728085150462      -0.08935922021070446     -0.023343103683393363    0.35335960474560246      -0.35335960474560246     0.02334310368339337      0.08935922021070446      -0.24065728085150462
0.25260819489620634       0.08393351993241772      0.04476045156307119      -0.01417802910829009     0.24543627812088858      -0.09029780160878226     -0.023126431257538483    0.35886051098720945      -0.35886051098720945     0.02312643125753849      0.09029780160878226      -0.24543627812088864
0.25641942089720837       0.08525430538731833      0.04547020542277576      -0.01425467979280973     0.24990050787172502      -0.09111671367754837     -0.022920724664929497    0.36393794621420295      -0.36393794621420295     0.022920724664929504     0.09111671367754837      -0.24990050787172505
0.2579682179844514        0.08578890090296704      0.045754399990315706     -0.014288336880871647    0.25168765425339457      -0.09146794935847358     -0.022838745688499626    0.3659943493003678       -0.3659943493003678      0.022838745688499633     0.09146794935847358      -0.2516876542533946
0.25996920723739897       0.08647535756592742      0.046121019164109434     -0.01432360904562497     0.2540193364416833       -0.09188209382202644     -0.022706778542973323    0.3686082088066831       -0.3686082088066831      0.02270677854297333      0.09188209382202644      -0.2540193364416833
0.2608806869874496        0.08678743579244426      0.04628684307872982      -0.014340181034427954    0.25507467668336614      -0.09207506648641092     -0.02264638178901271     0.3697961249587899       -0.3697961249587899      0.02264638178901272      0.09207506648641092      -0.25507467668336614
0.26279663493540906       0.0874434302209158       0.04663540813343554      -0.014375015673309312    0.25729302214890093      -0.09248069873476226     -0.022519426651712245    0.3722931475353755       -0.3722931475353755      0.02251942665171225      0.09248069873476226      -0.25729302214890093
0.2686404076777974        0.0894578964049586       0.047702713372045936     -0.01448446161307021     0.2640860864737742       -0.09374549914606028     -0.022130193758501428    0.379961779378336        -0.379961779378336       0.022130193758501435     0.09374549914606028      -0.26408608647377424
0.270210041351216         0.09000040408151608      0.04799111223950458      -0.014510456325261057    0.2659323195805017       -0.09406929674556266     -0.022014353856525816    0.38201597018259015      -0.38201597018259015     0.022014353856525823     0.09406929674556266      -0.26593231958050173
0.2731937532591315        0.09102541810208449      0.048538516947708846     -0.014547732952902813    0.2694754552356843       -0.09462621717265368     -0.021755646450568794    0.38585731885890684      -0.38585731885890684     0.021755646450568805     0.09462621717265368      -0.2694754552356843
0.275749292813538         0.08993024802788177      0.04786688255866504      -0.014588442507864011    0.26510737370030263      -0.09461361841122445     -0.022093921651687637    0.38181491376321475      -0.38181491376321475     0.022093921651687644     0.09461361841122445      -0.26510737370030263
0.28236564784488327       0.08701545676819869      0.04634961071241174      -0.014670812096277887    0.2543964972885211       -0.09366532978427368     -0.023701166985949408    0.37176299405874413      -0.37176299405874413     0.02370116698594941      0.09366532978427368      -0.2543964972885211
0.2847917485943377        0.08594792807421248      0.04579099265871127      -0.01469257150434175     0.2504985481071918       -0.09329316418965815     -0.024247407845075845    0.36803912014192575      -0.36803912014192575     0.024247407845075845     0.09329316418965815      -0.2504985481071918