% Model:              Cylinder_potential.mph
% Version:            COMSOL 6.2.0.339
% Date:               Apr 30 2024, 08:04
% Dimension:          1
% Nodes:              718
% Expressions:        11
% Description:        Line graph
% Arc length (m)          Magnetic scalar potential Magnetic scalar potential Magnetic scalar potential Magnetic scalar potential Magnetic scalar potential Magnetic scalar potential Magnetic scalar potential Magnetic scalar potential Magnetic scalar potential Magnetic scalar potential Magnetic scalar potential
0                         8.562820914942404E-6     -1.174241793759325E-5    1.53566201634641E-6      -1.1958963917486042E-5   -4.6210247577246525E-5   5.8495543708036914E-5    -2.4244260048269533E-5   2.4244260048269533E-5    -5.849554370803041E-5    4.6210247577246525E-5    1.195896391748474E-5
0.005670654290462091      0.001638085113954016     -9.977808042155529E-6    7.55787489451699E-4      0.006269386761588379     -2.829536942276726E-4    0.00632925360984128      2.2308684597477672E-4    -2.2308684597477672E-4   -0.006329253609841273    2.829536942276726E-4     -0.006269386761588381
0.014586140842323101      0.004207394308494764     -1.8700393130109162E-6   0.0019292521652135724    0.016126187159904794     -7.033900740742523E-4    0.016137407395782837     6.921698381962015E-4     -6.921698381962015E-4    -0.01613740739578283     7.033900740742523E-4     -0.016126187159904794
0.01623406872884059       0.004682331285992555     -6.382170624201922E-7    0.002145855645443364     0.017946170502571312     -7.831546413988992E-4    0.01794999980494581      7.793253390243888E-4     -7.793253390243888E-4    -0.017949999804945806    7.831546413988992E-4     -0.017946170502571312
0.01726471052868362       0.004979364854818651     1.3218527849677333E-7    0.002281323102813762     0.019084418676727843     -8.330407425467504E-4    0.01908362556505684      8.33833854217739E-4      -8.33833854217739E-4     -0.019083625565056838    8.330407425467504E-4     -0.019084418676727843
0.01787012370339846       0.005153199234551487     1.5047949611072956E-6    0.0023599700610349673    0.01975079309812617      -8.620038400797706E-4    0.019741764328359508     8.710326098464215E-4     -8.710326098464215E-4    -0.0197417643283595      8.62003840079771E-4      -0.01975079309812617
0.019143252024110848      0.005518756974611553     4.391267098153998E-6     0.0025253573932423686    0.021152117323487048     -9.229105749591548E-4    0.0211257697208981       9.492581775480868E-4     -9.492581775480868E-4    -0.021125769720898097    9.229105749591557E-4     -0.021152117323487048
0.020152462821785868      0.005806722197618336     7.57239893799859E-6      0.0026568090359991997    0.02226339773604747      -9.634910544258646E-4    0.022217963342419458     0.0010089254480538643    -0.0010089254480538643   -0.022217963342419447    9.634910544258654E-4     -0.02226339773604747
0.02119038927407979       0.006107573381813341     8.224924994438935E-6     0.002792026565370909     0.023407927800093643     -0.0010223657271597214   0.023358578250126983     0.0010717152771263613    -0.0010717152771263613   -0.023358578250126976    0.0010223657271597227    -0.023407927800093643
0.025414611943258256      0.007321520688440605     9.853637414225286E-6     0.003349111213293445     0.02806904714229767      -0.001217035611464742    0.028009925317812275     0.0012761574359501041    -0.0012761574359501041   -0.028009925317812268    0.0012170356114647434    -0.02806904714229767
0.028533513434432847      0.008215802413911118     1.0175555315835596E-5    0.0037613783952753694    0.031507645074871214     -0.0013555645807732395   0.03144659174297614      0.0014166179126682663    -0.0014166179126682663   -0.03144659174297613     0.0013555645807732414    -0.031507645074871214
0.03589299689333139       0.01032598498454335      1.0935165543581016E-5    0.004734180362579584     0.03962149691603576      -0.0016824430221376052   0.03955588592277416      0.0017480540153991132    -0.0017480540153991132   -0.03955588592277415     0.0016824430221376086    -0.03962149691603576
0.03919526859752176       0.011266954628423004     1.1084804735442093E-5    0.005169470752440456     0.043245046680814136     -0.001822771832877835    0.04317853785240135      0.0018892806612905173    -0.0018892806612905173   -0.04317853785240133     0.0018227718328778383    -0.043245046680814136
0.05039571504412526       0.014462652983529015     1.0306861065131705E-5    0.006622447817253506     0.05544601781926741      -0.0024045941148485824   0.05538417665287644      0.0024664352812394127    -0.0024664352812394127   -0.05538417665287643     0.002404594114848585     -0.05544601781926741
0.05285374085157386       0.015163974048463319     1.0136135225989368E-5    0.006941315028481896     0.05812361661653216      -0.0025322795773210552   0.05806279980517603      0.0025930963886770346    -0.0025930963886770346   -0.05806279980517601     0.0025322795773210587    -0.05812361661653216
0.054253135892348876      0.015564501878750867     1.016763468400121E-5     0.0071226661165563615    0.05965017112777915      -0.00260783638722425     0.059589165319674946     0.0026688421953283015    -0.0026688421953283015   -0.059589165319674925    0.002607836387224253     -0.05965017112777915
0.05572215329126283       0.015982336603803136     1.0115643513901177E-5    0.0073124991121425046    0.06124501658671796      -0.0026843298284945118   0.06118432272563435      0.0027450236895779656    -0.0027450236895779656   -0.06118432272563433     0.0026843298284945157    -0.06124501658671796
0.05745196133747094       0.016475657120013504     9.333281632262149E-6     0.00753788973536425      0.06313087302638075      -0.002771755453673184    0.06307487333658698      0.0028277551434668083    -0.0028277551434668083   -0.06307487333658696     0.0027717554536731883    -0.06313087302638075
0.061298619241193286      0.017565404053620292     6.3604950049187415E-6    0.00803569597645805      0.0672926734980875       -0.0029689427163935873   0.06725451052805781      0.0030071056864231544    -0.0030071056864231544   -0.0672545105280578      0.00296894271639359      -0.0672926734980875
0.061411829066589214      0.017597553653153134     6.280816671912388E-6     0.008050315127618094     0.06741521026679434      -0.0029750043458181114   0.06737752536676268      0.003012689245849637     -0.003012689245849637    -0.06737752536676267     0.002975004345818115     -0.06741521026679434
0.06952516576980196       0.019901598597760375     5.705601515736472E-7     0.009098016555137972     0.07619697509652731      -0.0034094192945140853   0.07619355173561773      0.0034128426554235892    -0.0034128426554235892   -0.07619355173561773     0.0034094192945140897    -0.07619697509652731
0.06956851311344378       0.019913906691973696     5.465059348007048E-7     0.009103580899141305     0.07624377649831696      -0.0034118502695777127   0.07624049746270803      0.0034151293051865833    -0.0034151293051865833   -0.076240497462708       0.003411850269577717     -0.07624377649831696
0.0718571005429212        0.02056373081799603      -7.234721886315108E-7    0.009397358710407967     0.078714726061058        -0.003540197210926039    0.07871906689418966      0.0035358563777943192    -0.0035358563777943192   -0.07871906689418966     0.003540197210926043     -0.078714726061058
0.07852442296813254       0.022453375029456622     6.376549799022926E-6     0.010260818073448717     0.08596915200210517      -0.003844348115721258    0.08593089270331092      0.003882607414515472     -0.003882607414515472    -0.08593089270331092     0.0038443481157212616    -0.08596915200210517
0.08452862342708377       0.024143724482114486     1.0845823212623606E-5    0.011033082981746722     0.09245231836085373      -0.004122579567604168    0.0923872434215779       0.004187654506879991     -0.004187654506879991    -0.0923872434215779      0.004122579567604172     -0.09245231836085373
0.0852965828063359        0.024360556448409783     9.612581671581658E-6     0.01112891979964681      0.09326562984042155      -0.004176595953217529    0.09320795435039199      0.004234271443247103     -0.004234271443247103    -0.09320795435039199     0.004176595953217533     -0.09326562984042155
0.08744236164707327       0.024960623086297557     1.2123432964022659E-5    0.011406844510980719     0.09558499451541005      -0.004257497829780112    0.09551225391762583      0.004330238427564336     -0.004330238427564336    -0.09551225391762583     0.004257497829780115     -0.09558499451541005
0.09467803090551333       0.026988772957452136     5.19786458950673E-6      0.01234323715984532      0.10336608814805406      -0.004589003681754403    0.10333490096051694      0.0046201908692915525    -0.0046201908692915525   -0.10333490096051694     0.004589003681754405     -0.10336608814805406
0.09781677299732648       0.02786855879919344      2.193640351166133E-6     0.012749432484213891     0.10674142845629597      -0.004732806740477748    0.10672826661418887      0.004745968582584861     -0.004745968582584861    -0.10672826661418887     0.004732806740477748     -0.10674142845629597
0.09938937125589854       0.028305994619332815     -4.31408806844235E-9     0.012951212062034909     0.10841682454454107      -0.004807153932790136    0.10841685042906939      0.0048071280482618415    -0.0048071280482618415   -0.10841685042906939     0.004807153932790136     -0.10841682454454107
0.10111098204397845       0.028784879943629414     -2.410537072017934E-6    0.013172111389690475     0.1102509738348047       -0.004888545939712923    0.1102654370572367       0.004874082717280936     -0.004874082717280936    -0.1102654370572367      0.004888545939712923     -0.1102509738348047
0.10206620511649823       0.029049860447515414     -2.7210312176613937E-6   0.013295234744027173     0.11127249677748656      -0.0049269450125750645   0.11128882296479242      0.004910618825269217     -0.004910618825269217    -0.11128882296479242     0.0049269450125750645    -0.11127249677748656
0.10378999503200845       0.029530641445862052     -2.398577920676619E-6    0.01351235245241723      0.11310349696763101      -0.005019068815817151    0.11311788843515498      0.005004677348293211     -0.005004677348293211    -0.11311788843515498     0.005019068815817151     -0.11310349696763101
0.11149273524932388       0.03167900714771711      -9.576981727780522E-7    0.014482541040515853     0.1212853053629793       -0.005430723227889086    0.12129105155201586      0.005424977038852533     -0.005424977038852533    -0.12129105155201586     0.005430723227889086     -0.1212853053629793
0.115769569461297         0.032850103452582484     2.299597278693395E-6     0.0150176264950381       0.12577761167715346      -0.005622802133176433    0.12576381409348117      0.0056365997168487045    -0.0056365997168487045   -0.12576381409348117     0.005622802133176433     -0.12577761167715346
0.11928729734201031       0.03381667971184473      2.8633207478174962E-6    0.015461118006741277     0.12948642141289804      -0.005780297434480831    0.12946924148841102      0.005797477358967844     -0.005797477358967844    -0.12946924148841102     0.005780297434480831     -0.12948642141289804
0.1229946928101642        0.034835371482422314     3.457438856322272E-6     0.015928521534361403     0.13339520141885922      -0.005946284510829965    0.13337445678572118      0.005967029143968008     -0.005967029143968008    -0.13337445678572118     0.005946284510829965     -0.13339520141885922
0.12589585498001407       0.03563463400642845      7.65801179471409E-6      0.016291076179635374     0.13645654676678257      -0.006081989258931201    0.1364105986960142       0.00612793732969959      -0.00612793732969959     -0.1364105986960142      0.006081989258931201     -0.13645654676678257
0.1333169710470598        0.03765198560808238      1.6731379556694532E-6    0.017211219438057618     0.1441538683822623       -0.006454074050067219    0.14414382955452815      0.006464112877801338     -0.006464112877801338    -0.14414382955452817     0.006454074050067218     -0.1441538683822623
0.13542555441326173       0.03822625470599231      -1.8550786215310944E-6   0.017468430160688924     0.14632066481887576      -0.006584354005093445    0.14633179529060483      0.00657322353336436      -0.00657322353336436     -0.14633179529060483     0.0065843540050934445    -0.14632066481887576
0.14294143885736132       0.04026171760075489      1.7751428135899224E-6    0.018394079930997773     0.15410508035394166      -0.00694179004907787     0.15409442949706004      0.006952440905959496     -0.006952440905959496    -0.15409442949706006     0.006941790049077869     -0.15410508035394166
0.14376123421023143       0.04048373578563744      2.171109340820933E-6     0.01849504521136211      0.1549541657447458       -0.0069807773978039075   0.15494113908870077      0.006993804053848917     -0.006993804053848917    -0.1549411390887008      0.006980777397803907     -0.1549541657447458
0.14414613037416374       0.040588454475019534     2.894456753149032E-6     0.018541739194794692     0.1553525490994773       -0.007001268800600779    0.15533518235895832      0.007018635541119756     -0.007018635541119756    -0.15533518235895838     0.007001268800600778     -0.1553525490994773
0.14693775136073547       0.04133775903009992      1.8475225516540448E-6    0.018877674228962187     0.15819175754370357      -0.007159278576696056    0.15818067240839356      0.007170363712006064     -0.007170363712006064    -0.15818067240839356     0.007159278576696056     -0.15819175754370357
0.1587421871388812        0.04450748346926431      -5.386021885221085E-6    0.020304691095526135     0.17021757325497755      -0.007812360622079678    0.17024988938628882      0.007780044490768441     -0.007780044490768441    -0.17024988938628882     0.007812360622079678     -0.17021757325497755
0.15983195121048274       0.044798985998090624     -3.115014245739557E-6    0.020441839123802777     0.1713559834486552       -0.007839960543707301    0.17137467353412955      0.007821270458232953     -0.007821270458232953    -0.17137467353412955     0.0078399605437073       -0.1713559834486552
0.16046029632867437       0.044968430954268154     -4.50439832531957E-6     0.020522167032234626     0.1720120168424989       -0.007861706974573704    0.17203904323245076      0.007834680584621877     -0.007834680584621877    -0.17203904323245076     0.007861706974573703     -0.1720120168424989
0.16095567609391534       0.04510201932820837      -5.5997720924522675E-6   0.020585496593122744     0.1725292257126304       -0.007878851600203064    0.17256282434518505      0.007845252967648441     -0.007845252967648441    -0.17256282434518505     0.007878851600203065     -0.1725292257126304
0.16213599430169498       0.04541031941236937      1.0376139943578356E-6    0.020722876195802282     0.173715256449931        -0.007926021199546447    0.17370903076596478      0.007932246883512685     -0.007932246883512685    -0.17370903076596478     0.007926021199546447     -0.173715256449931
0.1621936665564086        0.04542538345261272      1.3619274028163963E-6    0.020729588785158244     0.17377320782806693      -0.00792832598238394     0.17376503626364997      0.00793649754680093      -0.00793649754680093     -0.17376503626364997     0.00792832598238394      -0.17377320782806693
0.16245371632562544       0.04549526511046904      2.126359818744542E-6     0.020760962267919035     0.1740407583720705       -0.007940302069805616    0.17402800021315795      0.007953060228718176     -0.007953060228718176    -0.17402800021315795     0.007940302069805616     -0.1740407583720705
0.1661132862615355        0.04645911285560545      1.5016006551925743E-6    0.021188924918626062     0.17767843018768076      -0.00815802123474101     0.17766942058374957      0.008167030838672254     -0.008167030838672254    -0.17766942058374957     0.00815802123474101      -0.17767843018768076
0.16981887083111377       0.047437060856639894     1.6228223057888967E-7    0.02162338835072992      0.18136816196289124      -0.008380081463668311    0.1813671882695077       0.00838105515705187      -0.00838105515705187     -0.1813671882695077      0.008380081463668311     -0.18136816196289124
0.17088886968925143       0.04771807452733756      -6.27149090274583E-7     0.02174961117971886      0.18243271232627978      -0.008439585783070443    0.18243647522082138      0.00843582288852888      -0.00843582288852888     -0.18243647522082138     0.008439585783070443     -0.18243271232627978
0.1724679750413278        0.048132710458822565     -2.4861380599677037E-6   0.02193313830198396      0.18399051571140107      -0.008540326123889134    0.18400543253976087      0.008525409295529411     -0.008525409295529411    -0.18400543253976087     0.008540326123889134     -0.18399051571140107
0.175578010603922         0.04895547944491652      -1.896377897461543E-6    0.022295736147346673     0.1870882143455274       -0.008733703434138686    0.18709959261291212      0.008722325166753996     -0.008722325166753996    -0.18709959261291212     0.008733703434138686     -0.1870882143455274
0.1758465442876866        0.04902652081479036      -1.8454554993769796E-6   0.02232704438584769      0.18735568280647338      -0.008750400452688042    0.18736675553946963      0.008739327719691858     -0.008739327719691858    -0.18736675553946963     0.008750400452688042     -0.18735568280647338
0.1759168898580914        0.049044767437732645     -2.0224420821429896E-6   0.022334932924346632     0.18742319924660542      -0.008755870504325141    0.18743533389909825      0.008743735851832362     -0.008743735851832362    -0.18743533389909825     0.008755870504325141     -0.18742319924660542
0.1769277539395217        0.049306970951523206     -4.565734835100248E-6    0.022448291024617414     0.1883934087970108       -0.008834475009082021    0.1884208032060214       0.008807080600071494     -0.008807080600071494    -0.1884208032060214      0.008834475009082021     -0.1883934087970108
0.17710732676133278       0.04935265942625654      -5.0184406791972875E-6   0.022469262683707622     0.188567314265306        -0.008843323439720146    0.18859742490938117      0.008813212795645039     -0.008813212795645039    -0.18859742490938117     0.008843323439720146     -0.188567314265306
0.18053507496601276       0.05024145509448771      -2.898158958346389E-6    0.022863862636448257     0.19192966625789346      -0.009036154120057401    0.1919470552116435       0.009018765166307393     -0.009018765166307393    -0.1919470552116435      0.009036154120057401     -0.19192966625789346
0.18618875498503584       0.05170628537854569      -1.4358919500630056E-6   0.02351566739964702      0.19747093267982935      -0.009354208834353481    0.19747954803152967      0.00934559348265317      -0.00934559348265317     -0.19747954803152967     0.009354208834353481     -0.19747093267982935
0.18982234676877283       0.05264772445306233      -4.961002800274493E-7    0.023934579050853087     0.201032276808697        -0.009558621003552403    0.20103525341037712      0.0095556444018723       -0.0095556444018723      -0.20103525341037712     0.009558621003552403     -0.201032276808697
0.19019045375878788       0.052743630409887554     1.1984840659319215E-7    0.02397557172962141      0.2013899072834806       -0.009584614356069696    0.201389188193041        0.009585333446509317     -0.009585333446509317    -0.201389188193041       0.009584614356069696     -0.2013899072834806
0.19303115937899143       0.05347055033389461      -8.14300518450588E-6     0.024283057871818173     0.20404890313950846      -0.009833298196070034    0.20409776117061545      0.009784440164963066     -0.009784440164963066    -0.20409776117061545     0.009833298196070034     -0.20404890313950846
0.19544135825341047       0.05408128290754184      -8.714176797375512E-6    0.024565751477868335     0.20639942919616494      -0.009925702434002448    0.20645171425694914      0.009873417373218263     -0.009873417373218263    -0.20645171425694914     0.009925702434002448     -0.20639942919616494
0.20008966636155961       0.0552591413839215       -9.815738028453821E-6    0.025110954197474465     0.21093265234365557      -0.010103913192030505    0.21099154677182622      0.01004501876385985      -0.01004501876385985     -0.21099154677182622     0.010103913192030505     -0.21093265234365557
0.20221039357083861       0.05580286122264169      -7.472711125995098E-6    0.025340178458412757     0.2129440181455565       -0.010267426745010334    0.21298885441231236      0.01022259047825443      -0.01022259047825443     -0.21298885441231236     0.010267426745010333     -0.2129440181455565
0.20421370824556845       0.056316857077668835     -5.257332118427317E-6    0.025553167848140025     0.21483061355154254      -0.010436814759132832    0.214862157544253        0.010405270766422333     -0.010405270766422333    -0.214862157544253       0.01043681475913283      -0.21483061355154254
0.20424405690833225       0.05632464371601526      -5.2237708455820276E-6   0.025556394472116096     0.21485919400795822      -0.01043938085610286     0.21489053663303162      0.010408038231029435     -0.010408038231029435    -0.21489053663303162     0.01043938085610286      -0.21485919400795822
0.2054667049970391        0.05663096486452019      -7.920166626766928E-7    0.025696525457354378     0.21604565550846994      -0.010478203949610876    0.21605040760844588      0.010473451849634883     -0.010473451849634883    -0.21605040760844588     0.010478203949610874     -0.21604565550846994
0.21091635052424454       0.0579956003966912       2.1462638209055135E-6    0.026305190283989463     0.22121840072080304      -0.010764000865961786    0.2212055231378775       0.010776878448887289     -0.010776878448887289    -0.2212055231378775      0.010764000865961786     -0.22121840072080304
0.21432273373330826       0.058849236575095554     -5.054100266007949E-6    0.026652371604872514     0.2242927972688832       -0.01110414903149903     0.22432312187047915      0.011073824429903052     -0.011073824429903052    -0.22432312187047915     0.011104149031499035     -0.2242927972688832
0.21787013058248708       0.05974485453184559      -2.586706367019515E-6    0.02701687363469988      0.22754944348338965      -0.011429974643992646    0.22756496372159168      0.0114144544057906       -0.0114144544057906      -0.22756496372159168     0.011429974643992653     -0.22754944348338965
0.2188930476678625        0.06000311233295422      -1.8752158056495327E-6   0.02712198038475259      0.22848852055750185      -0.011523928774314938    0.22849977185233566      0.011512677479481113     -0.011512677479481113    -0.22849977185233566     0.011523928774314943     -0.22848852055750185
0.22333597878912226       0.061089786588413506     -3.6623443653552214E-7   0.027601501764673173     0.23258448153221015      -0.011774664821443858    0.23258667893882928      0.011772467414824718     -0.011772467414824718    -0.23258667893882928     0.011774664821443863     -0.23258448153221015
0.22696503882366972       0.06198748680573826      -8.427604095819136E-6    0.027994613874889402     0.2359281462987467       -0.012021800924206306    0.23597871192332154      0.011971235299631466     -0.011971235299631466    -0.23597871192332154     0.012021800924206311     -0.2359281462987467
0.23328535667516787       0.0635474585500874       -8.922085030981924E-6    0.028604772040357895     0.24148723900651345      -0.01270259519383609     0.24154077151669923      0.012649062683650276     -0.012649062683650276    -0.24154077151669923     0.012702595193836092     -0.24148723900651345
0.23424990097288045       0.0637847340401218       -5.971169834493461E-6    0.028693248553895222     0.24232454878632106      -0.012814387374166136    0.24236037580532788      0.012778560355159252     -0.012778560355159252    -0.24236037580532788     0.012814387374166136     -0.24232454878632106
0.2357634148457902        0.06414335535077297      -2.913187671100832E-6    0.028850689278463917     0.2436807282523884       -0.012892693150703476    0.24369820737841486      0.01287521402467695      -0.01287521402467695     -0.24369820737841486     0.012892693150703481     -0.2436807282523884
0.23875303083350688       0.0648531449591687       -1.805594332947183E-6    0.029160443820016316     0.2463426484154039       -0.013069931421270897    0.24635348198140147      0.013059097855273295     -0.013059097855273295    -0.24635348198140147     0.013069931421270903     -0.2463426484154039
0.23966698764710512       0.06507227362184595      7.117680731279132E-7     0.029246789590832326     0.24713384091124066      -0.013155253576143135    0.24712957030280178      0.013159524184581984     -0.013159524184581984    -0.24712957030280178     0.01315525357614314      -0.24713384091124066
0.2400364539081643        0.06516085619652093      1.7294096750782137E-6    0.029281694794915294     0.24745367980172833      -0.013189744984355361    0.24744330334367778      0.013200121442405913     -0.013200121442405913    -0.24744330334367778     0.013189744984355366     -0.24745367980172833
0.2481276519753075        0.0671125691174819       -5.145701177503882E-7    0.030041326639181264     0.25438890108133566      -0.014061375388591903    0.25439198850204203      0.014058287967885478     -0.014058287967885478    -0.25439198850204203     0.014061375388591904     -0.25438890108133566
0.2483530951616009        0.06716529597575804      -7.441559324319023E-7    0.03006251055933075      0.25457840172104185      -0.01408278218199031     0.2545828666566363       0.014078317246395796     -0.014078317246395796    -0.2545828666566363      0.014082782181990314     -0.25457840172104185
0.25374167037826195       0.06842558086806552      -6.231748844133175E-6    0.03056885164235936      0.25910787305903615      -0.014594450413225928    0.2591452635521008       0.0145570599201612       -0.0145570599201612      -0.2591452635521008      0.014594450413225931     -0.25910787305903615
0.2565754449112123        0.06909117912970589      -5.880656000861913E-6    0.030839858624699016     0.2615241507902053       -0.014840565728618233    0.26155943472621035      0.014805281792613128     -0.014805281792613128    -0.26155943472621035     0.014840565728618235     -0.2615241507902053
0.25806674516245953       0.0694467523837162       -8.009100041927336E-6    0.030972414664743177     0.26275913612627944      -0.015027873408585402    0.2628071907265308       0.014979818808333906     -0.014979818808333906    -0.2628071907265308      0.015027873408585406     -0.26275913612627944
0.2613070646452341        0.07021478907379229      -1.799698905164131E-6    0.031265908642002495     0.26548781361887913      -0.015371342676289996    0.26549861181231         0.015360544482859076     -0.015360544482859076    -0.26549861181231        0.015371342676290001     -0.26548781361887913
0.2648471603911933        0.0710279192314947       2.3608102999222915E-6    0.031586845124664316     0.26841030139254646      -0.01570137553343228     0.2683961365307468       0.01571554039523188      -0.01571554039523188     -0.2683961365307468      0.015701375533432285     -0.26841030139254646
0.27311443591426027       0.07294991833215403      9.971358630189297E-6     0.03228682666036113      0.2750770573816431       -0.0167226159469729      0.27501722922986194      0.0167824440987541       -0.0167824440987541      -0.27501722922986194     0.016722615946972903     -0.2750770573816431
0.27448647731516057       0.07327376676562251      9.10618604836659E-6      0.032393736863220494     0.27614979954227215      -0.016945267520217834    0.27609516242598187      0.0169999046365081       -0.0169999046365081      -0.27609516242598187     0.01694526752021784      -0.27614979954227215
0.27825307697748747       0.07412495596853506      -5.620492843732422E-6    0.032701831917336235     0.27904037812788385      -0.017459445746256304    0.2790741010849461       0.017425722789193968     -0.017425722789193968    -0.2790741010849461      0.017459445746256307     -0.27904037812788385
0.2795512292761234        0.07441831690927606      -1.0696018189910604E-5   0.03280801636446476      0.2800366112218414       -0.01763665641526273     0.2801007873309808       0.01757248030612333      -0.01757248030612333     -0.2801007873309808      0.017636656415262734     -0.2800366112218414
0.2799228338559856        0.07450335681187521      -1.016459830089901E-5    0.032835270588387845     0.28031730218239914      -0.017696125065101664    0.28037828977220447      0.017635137475296332     -0.017635137475296332    -0.28037828977220447     0.01769612506510167      -0.28031730218239914
0.2801801210555876        0.07456102277872025      -9.320947061744835E-6    0.03285725397871934      0.2805230986311327       -0.017720992483748282    0.280579024313503        0.017665066801377874     -0.017665066801377874    -0.280579024313503       0.01772099248374829      -0.2805230986311327
0.28033441464163794       0.07459665329191464      -7.637816129299729E-6    0.032869953502200594     0.28065020714424377      -0.017736406023414728    0.2806960340410195       0.01769057912663899      -0.01769057912663899     -0.2806960340410195      0.01773640602341473      -0.28065020714424377
0.28112277520648726       0.07477870681874524      9.621139558362718E-7     0.03293484151058307      0.2812996660216902       -0.017815161253290617    0.2812938933379552       0.01782093393702569      -0.01782093393702569     -0.2812938933379552      0.01781516125329062      -0.2812996660216902
0.2821272059878684        0.07500893282199311      -1.693393127658396E-6    0.03300641015332424      0.28203842607790025      -0.017997305210072125    0.28204858643666614      0.017987144851306234     -0.017987144851306234    -0.28204858643666614     0.017997305210072128     -0.28203842607790025