% Model:              Cylinder_potential.mph
% Version:            COMSOL 6.2.0.339
% Date:               Apr 30 2024, 08:06
% Dimension:          1
% Nodes:              510
% Expressions:        11
% Description:        Line graph
% Arc length (m)          Magnetic scalar potential Magnetic scalar potential Magnetic scalar potential Magnetic scalar potential Magnetic scalar potential Magnetic scalar potential Magnetic scalar potential Magnetic scalar potential Magnetic scalar potential Magnetic scalar potential Magnetic scalar potential
0                         8.562820914942188E-6     -1.1742417937593249E-5   1.53566201634641E-6      -1.1958963917486042E-5   -4.621024757724655E-5    5.849554370803648E-5     -2.4244260048270224E-5   2.4244260048270224E-5    -5.849554370803258E-5    4.621024757724655E-5     1.1958963917485174E-5
0.0040674652911439485     -0.0013276548001749002   7.026865960788493E-4     -3.1142362074290534E-4   -0.0017929442950848462   0.0035176749056147595    -0.00600906387155798     6.984446708583833E-4     -6.984446708583833E-4    0.006009063871557985     -0.0035176749056147595   0.0017929442950848453
0.00854111150575088       -0.002799671447897877    0.0014874307702442413    -6.457078867230283E-4    -0.0037198821319551064   0.0074788036596364       -0.012644466753420599    0.0014457809618291053    -0.0014457809618291053   0.012644466753420605     -0.0074788036596364      0.0037198821319551043
0.009086861020723232      -0.0029792458561072282   0.001583163363275354     -6.864879277164064E-4    -0.003954953333253982    0.007962030091174929     -0.013453933512906151    0.0015369500884772544    -0.0015369500884772544   0.01345393351290616      -0.007962030091174929    0.003954953333253981
0.011740513109609406      -0.003852354974504418    0.0020481613495709175    -8.853270234397998E-4    -0.005101533994055241    0.010307885903962427     -0.01739050209148079     0.001981082193463141     -0.001981082193463141    0.0173905020914808       -0.010307885903962427    0.005101533994055239
0.021333280015763848      -0.007002419319575303    0.0037335694017224903    -0.0016144998274479703   -0.00926212974377497     0.018747547534526225     -0.03166354615410997     0.0036538688758087816    -0.0036538688758087816   0.03166354615410997      -0.018747547534526225    0.009262129743774966
0.029727683961446975      -0.009763400391539123    0.0052065005213197185    -0.002233953798206499    -0.012843114411945024    0.026210487154211447     -0.04408211753986341     0.005028515973706952     -0.005028515973706952    0.04408211753986341      -0.026210487154211447    0.012843114411945019
0.030861007906299344      -0.010136237073635196    0.00540531696395926      -0.002317473483176508    -0.013326417188098584    0.02721853110644219      -0.04575831897185422     0.005213370677313467     -0.005213370677313467    0.04575831897185422      -0.02721853110644219     0.013326417188098577
0.03794606082835899       -0.012462770335904285    0.00664986177423927      -0.00284809413980415     -0.01636833190830729     0.03348274943530982      -0.056267502553742986    0.0064164212101258875    -0.0064164212101258875   0.05626750255374299      -0.03348274943530982     0.016368331908307283
0.038125286876772926      -0.012521623158556011    0.006681344227634369     -0.0028615169108886225   -0.016445281277763332    0.033641211356460685     -0.05653334664356963     0.006446854009345625     -0.006446854009345625    0.05653334664356963      -0.033641211356460685    0.016445281277763325
0.0390250321869867        -0.012816669893580998    0.0068394737174226825    -0.0029273566771427987   -0.01682434534346507     0.03444233423085889      -0.057861187648001244    0.006594508073677296     -0.006594508073677296    0.05786118764800125      -0.03444233423085889     0.016824345343465063
0.03963213289543542       -0.013016304371070672    0.0069459878945159325    -0.002971437885524086    -0.017080396600689815    0.034984820883592845     -0.0587563239677855      0.006691106483502852     -0.006691106483502852    0.0587563239677855       -0.034984820883592845    0.017080396600689805
0.05181010664225947       -0.017020818600748028    0.00908258044704414      -0.0038556730559413323   -0.022216588084128873    0.045866686318863197     -0.07671207076639383     0.008628796363401765     -0.008628796363401765    0.07671207076639383      -0.045866686318863197    0.022216588084128863
0.054543596612368         -0.017915369554631494    0.009559881031587359     -0.004045384270569947    -0.023332633096780603    0.048328845121745345     -0.08069191928630487     0.009030441067778948     -0.009030441067778948    0.08069191928630487      -0.048328845121745345    0.023332633096780596
0.05935035852009793       -0.019496709823713907    0.010400107529761619     -0.004384878227301617    -0.025332609967349345    0.05265422932750627      -0.08773325514591918     0.00974641585106358      -0.00974641585106358     0.08773325514591918      -0.05265422932750627     0.02533260996734934
0.06798993007861717       -0.022342087130451674    0.01191870735175552      -0.005007446005987584    -0.028957836229587072    0.06041051229221961      -0.10047008034012027     0.011101731818313603     -0.011101731818313603    0.10047008034012027      -0.06041051229221961     0.028957836229587065
0.0705730319136891        -0.02319281211058785     0.012372745837386703     -0.005193584399620615    -0.03004172430749799     0.06272952413485339      -0.10427819933181828     0.011506950889466922     -0.011506950889466922    0.10427819933181828      -0.06272952413485339     0.030041724307497984
0.07124081619676306       -0.023411674991496444    0.01248994267802425      -0.005240879341147776    -0.030317039313511193    0.06332966065247458      -0.10525669538165676     0.011609995415671015     -0.011609995415671015    0.10525669538165676      -0.06332966065247458     0.03031703931351118
0.07135634764499996       -0.023449475058936794    0.012510193794107017     -0.005248992726137595    -0.030364339640102857    0.0634335605956443       -0.10542550240474502     0.011627602168997898     -0.011627602168997898    0.10542550240474502      -0.0634335605956443      0.030364339640102846
0.07342396755251275       -0.0241259676775072      0.012872619881558429     -0.005394194717268807    -0.031210854579414297    0.0652930161306145       -0.10844657386876493     0.011942703158736166     -0.011942703158736166    0.10844657386876493      -0.0652930161306145      0.031210854579414284
0.07436242226459483       -0.024436115333732574    0.013037898755254483     -0.005459195634719431    -0.03159531694057938     0.0661491443943509       -0.10982270947210633     0.012078248137176078     -0.012078248137176078    0.10982270947210633      -0.0661491443943509      0.03159531694057936
0.07462778032918813       -0.02452381288667204     0.013084633117048928     -0.005477575336402869    -0.03170402776780873     0.06639122377887943      -0.11021182647010236     0.01211657492341423      -0.01211657492341423     0.11021182647010236      -0.06639122377887943     0.03170402776780873
0.08343732253600478       -0.027424880102719408    0.014628965564683405     -0.006083134265483372    -0.03529540057332205     0.07440411983755557      -0.12306919396142252     0.01336967355054494      -0.01336967355054494     0.12306919396142252      -0.07440411983755557     0.03529540057332204
0.08675240346311412       -0.028515717611011716    0.015210323455409602     -0.006313761200266306    -0.03665550965685983     0.07740736078718705      -0.12791745038931748     0.013854579945270638     -0.013854579945270638    0.12791745038931748      -0.07740736078718705     0.036655509656859826
0.09182040570385487       -0.030184969501543795    0.016100540529355542     -0.0066522053820567      -0.038677138943247744    0.08206273906292744      -0.13528038211938104     0.014540504113205871     -0.014540504113205871    0.13528038211938104      -0.08206273906292744     0.038677138943247744
0.09433191615588798       -0.031018663462261217    0.016545065114442488     -0.006823276156425303    -0.039695236206896176    0.08437941764214872      -0.13896562689355113     0.014890973044506265     -0.014890973044506265    0.13896562689355113      -0.08437941764214872     0.039695236206896176
0.09897499664686257       -0.03254511602845469     0.017358197305622623     -0.007132275861937978    -0.04154474358779342     0.08863572052602536      -0.14569392742152917     0.015513463307710428     -0.015513463307710428    0.14569392742152917      -0.08863572052602536     0.04154474358779341
0.10168156971263093       -0.033434925156223025    0.01783219332870157      -0.00731239987268831     -0.042622869817094594    0.09111683080779753      -0.149616029789304       0.015876329164411916     -0.015876329164411916    0.149616029789304        -0.09111683080779753     0.04262286981709459
0.10682127864653113       -0.03512628163740655     0.018733773026370533     -0.007640118767857255    -0.044611719267130534    0.09589340728249571      -0.15701435742535372     0.01650923087572752      -0.01650923087572752     0.15701435742535372      -0.09589340728249571     0.044611719267130534
0.11260730181155586       -0.037045243751181525    0.019756481698113244     -0.008016767222173466    -0.046888111296717216    0.10129286370800895      -0.16542700148539669     0.017246026480670532     -0.017246026480670532    0.16542700148539669      -0.10129286370800895     0.04688811129671721
0.1138269410031569        -0.03744974289237146     0.019972059054454906     -0.008096161169144994    -0.047367953297958204    0.1024310182715277       -0.16720030762468766     0.017401336055201774     -0.017401336055201774    0.16720030762468766      -0.1024310182715277      0.0473679532979582
0.11661073596214774       -0.038364119631261115    0.020458910963029972     -0.008273021624319461    -0.04844359287071018     0.10501288565433434      -0.17119705864889        0.017740580123845516     -0.017740580123845516    0.17119705864889         -0.10501288565433434     0.04844359287071018
0.1243443309244726        -0.04092701857869448     0.021825782290234824     -0.008728532411794231    -0.05129081993386143     0.11241725438091651      -0.18224551367527042     0.01853743936049243      -0.01853743936049243     0.18224551367527042      -0.11241725438091654     0.05129081993386143
0.13316837754154998       -0.04385129117083088     0.023385385084221364     -0.009248271089969165    -0.054539511448874325    0.1208656532344492       -0.1948518219542026      0.019446657270878992     -0.019446657270878992    0.1948518219542026       -0.12086565323444926     0.05453951144887434
0.13434823032748214       -0.04423923718835662     0.023592940290805345     -0.00931939229137569     -0.054977222669799965    0.12197972608362652      -0.19653486441463214     0.019577915661205557     -0.019577915661205557    0.19653486441463214      -0.12197972608362656     0.05497722266979998
0.1346056690175386        -0.0443236388096409      0.023638127768006723     -0.009334395721378213    -0.05507047720077447     0.12222407803778912      -0.19689924380881493     0.01960468857025122      -0.01960468857025122     0.19689924380881493      -0.12222407803778917     0.055070477200774494
0.13503726557650209       -0.044466529994389395    0.02371517432620482      -0.009360112153930568    -0.05522798562588661     0.12263813435167097      -0.19751903158311562     0.019652911605557946     -0.019652911605557946    0.19751903158311562      -0.12263813435167102     0.05522798562588662
0.14364549487156333       -0.04732458615988272     0.02524316285616514      -0.009858232571164346    -0.05835261403592738     0.1309457306036035       -0.2098115911729183      0.020513246533387382     -0.020513246533387382    0.2098115911729183       -0.13094573060360354     0.05835261403592738
0.14420638526377555       -0.04750963288510364     0.02534065683639855      -0.009888574735310098    -0.058551594202252005    0.13148693733816255      -0.2105955352206434      0.020557003680228787     -0.020557003680228787    0.2105955352206434       -0.13148693733816258     0.058551594202252005
0.14589197889068756       -0.048065737223926604    0.025633646757469528     -0.009979759321854863    -0.05914957146286405     0.13311337743284235      -0.21295145200768129     0.020688503111974843     -0.020688503111974843    0.21295145200768129      -0.1331133774328424      0.05914957146286405
0.15236659764866042       -0.05022269490335249     0.02677841185787638      -0.010338461126409744    -0.06146399873871479     0.1394267808746952       -0.22213446988597318     0.02124369027256316      -0.02124369027256316     0.22213446988597318      -0.1394267808746952      0.06146399873871479
0.15341155056336192       -0.05057118086087665     0.026964965766803187     -0.010396414198528787    -0.06183312121545885     0.14045160222804776      -0.22362291581627808     0.02133819237277143      -0.02133819237277143     0.22362291581627808      -0.14045160222804776     0.06183312121545885
0.1534911607712137        -0.050597563367000734    0.02697888523906949      -0.01040052931387225     -0.061860588272281955    0.140529665195721        -0.223733899706699       0.021343646238696026     -0.021343646238696026    0.223733899706699        -0.140529665195721       0.061860588272281955
0.15464818204537611       -0.050980995613631175    0.02718118499398576      -0.01046033666931703     -0.06225978292257314     0.14166419953195158      -0.22534689288648785     0.021422910431963073     -0.021422910431963073    0.22534689288648785      -0.14166419953195158     0.06225978292257314
0.1571782887638366        -0.05181549265572309     0.02762788455439398      -0.010592591836563806    -0.06311769899451944     0.14414427162837296      -0.2288850063208834      0.02162303569799099      -0.02162303569799099     0.2288850063208834       -0.14414427162837296     0.06311769899451944
0.16023624791556296       -0.05283394989252373     0.02817691583434392      -0.010756429231400336    -0.06416286920761702     0.14717293036247792      -0.23322436421368065     0.021888564643585663     -0.021888564643585663    0.23322436421368065      -0.14717293036247792     0.06416286920761702
0.1631776062551606        -0.05381357307856137     0.028705012402628384     -0.010914019461920037    -0.06516818679691774     0.15008610551732784      -0.23739826121268814     0.022143968898442556     -0.022143968898442556    0.23739826121268814      -0.15008610551732784     0.06516818679691774
0.1652451000409231        -0.054497816139235794    0.02906859880003423      -0.011016997567358692    -0.06585782614780367     0.15213343840913962      -0.24026941894800918     0.02227815439106585      -0.02227815439106585     0.24026941894800918      -0.15213343840913962     0.06585782614780367
0.16724382863490564       -0.055161177145512094    0.029418069548836908     -0.011113115155007175    -0.06652060626454218     0.15412410231750628      -0.24302902355756373     0.022384314975515213     -0.022384314975515213    0.24302902355756373      -0.15412410231750628     0.06652060626454218
0.16846459863698565       -0.055566340317465365    0.029631516941357898     -0.011171821208458764    -0.06692541464469211     0.15533994662516948      -0.24471451629283958     0.022449155022977993     -0.022449155022977993    0.24471451629283958      -0.15533994662516948     0.06692541464469211
0.17045590594937787       -0.05623512084488914     0.029986844567823932     -0.01126847944561852     -0.06758362576878056     0.15735685761077606      -0.24750469317572427     0.022564209796167575     -0.022564209796167575    0.24750469317572427      -0.15735685761077609     0.06758362576878056
0.17452074026897255       -0.057593543038646486    0.030710466806607356     -0.011456987356161952    -0.06888363508211875     0.1614905370724673       -0.253146435921763       0.022772263767176868     -0.022772263767176868    0.253146435921763        -0.1614905370724673      0.06888363508211875
0.17924010063408147       -0.059170700520662145    0.031550607841769246     -0.011675849108346946    -0.07039297394940437     0.16628982813324428      -0.2596966210000199      0.023013818917371184     -0.023013818917371184    0.2596966210000199       -0.16628982813324428     0.07039297394940437
0.18264457053995647       -0.06030053960761372     0.03215630150552088      -0.011829609500976319    -0.07145061270257011     0.16975154572788487      -0.26438842173569543     0.02318626330524042      -0.02318626330524042     0.26438842173569543      -0.16975154572788487     0.07145061270257011
0.18558330410531002       -0.06128408520468402     0.03268002314505894      -0.011952023838784784    -0.0723361963293304      0.17280014448940573      -0.26841633519968405     0.023279994380947865     -0.023279994380947865    0.26841633519968405      -0.17280014448940573     0.0723361963293304
0.18913989659751881       -0.06247947052266752     0.03331920758112648      -0.01210683509242736     -0.07342865867166509     0.17648922341900503      -0.273343904158424       0.023426022067753793     -0.023426022067753793    0.273343904158424        -0.17648922341900503     0.07342865867166509
0.19430606893842617       -0.06420726038279803     0.034245496828384556     -0.01232052440907532     -0.0749601279167437      0.18186891361444846      -0.28043310888705103     0.023604067355858863     -0.023604067355858863    0.28043310888705103      -0.18186891361444846     0.0749601279167437
0.19682454244292724       -0.06504954606297725     0.0346970564692141       -0.012424696482064719    -0.07570670864657111     0.18449147560533793      -0.2838890474618557      0.023690863209946667     -0.023690863209946667    0.2838890474618557       -0.18449147560533793     0.07570670864657111
0.19772965515457747       -0.06535480176338865     0.034859615639580045     -0.012458958967127877    -0.07596659247654867     0.18545261457700596      -0.285124286314029       0.023705079260474354     -0.023705079260474354    0.285124286314029        -0.18545261457700596     0.07596659247654866
0.20892627946336495       -0.06911921467371986     0.03686097664276329      -0.012893601172770124    -0.07922990411023041     0.19724695458464914      -0.30039576396681017     0.023918905271930604     -0.023918905271930604    0.30039576396681017      -0.19724695458464914     0.07922990411023041
0.21156150606366864       -0.0700071160413186      0.037334258053393        -0.012988643927830903    -0.07996603363378185     0.20006243053149267      -0.3039715819541399      0.023943117788865407     -0.023943117788865407    0.3039715819541399       -0.20006243053149267     0.07996603363378185
0.21212728125694516       -0.07019515196161395     0.03743501286564787      -0.013007850720853538    -0.08011666820969851     0.20066393963675744      -0.30472674540358585     0.02394613755712983      -0.02394613755712983     0.30472674540358585      -0.20066393963675744     0.08011666820969851
0.21268934108308513       -0.07038680427668448     0.03753711915223342      -0.013024320937165854    -0.08025953484533217     0.2012876822614059       -0.3054822497587328      0.02393503265199468      -0.02393503265199468     0.3054822497587328       -0.2012876822614059      0.08025953484533217
0.2127170754899207        -0.07039616758534722     0.037542126765286454     -0.013025257394331888    -0.0802669844521627      0.20131768588922636      -0.3055197450438815      0.02393507470249244      -0.02393507470249244     0.3055197450438815       -0.20131768588922636     0.0802669844521627
0.2228066057250201        -0.07380245589768059     0.03936385180177041      -0.013365932172293054    -0.0829770850792222      0.21223273851150026      -0.3191601958898446      0.02395037229912225      -0.02395037229912225     0.3191601958898446       -0.21223273851150026     0.0829770850792222
0.22454943445634973       -0.0743865118111218      0.03967601968572744      -0.013424938824213903    -0.08344471986191693     0.21410132738257032      -0.3215008379762816      0.02395479073179433      -0.02395479073179433     0.3215008379762816       -0.21410132738257032     0.08344471986191693
0.22506885696538922       -0.07456122006764254     0.039769352927761396     -0.013441995752250932    -0.08358236436100465     0.21466251590956556      -0.32219848192757305     0.02395360165700282      -0.02395360165700282     0.32219848192757305      -0.21466251590956556     0.08358236436100465
0.22549851242106472       -0.07470631474825921     0.03984725449830326      -0.01345623239484274     -0.08369579558097967     0.2151294634120573       -0.3227793225707992      0.02395406357776228      -0.02395406357776228     0.3227793225707992       -0.2151294634120573      0.08369579558097967
0.23456252922718174       -0.0777863067207786      0.04148864291482381      -0.013729839232375177    -0.0860260416265865      0.22511918525652796      -0.3349578991155293      0.023812672232414928     -0.023812672232414928    0.3349578991155293       -0.22511918525652796     0.0860260416265865
0.23521362607618865       -0.07800819182467508     0.04160615216292895      -0.013745668505024854    -0.08618060118066276     0.22585216611803766      -0.33581751415823646     0.023784746859536094     -0.023784746859536094    0.33581751415823646      -0.22585216611803766     0.08618060118066276
0.2364050782883808        -0.07841422281421705     0.04182118415674285      -0.013774634736307677    -0.08646343210343632     0.22719345915343198      -0.3373905370438934      0.023733645787025123     -0.023733645787025123    0.3373905370438934       -0.22719345915343198     0.08646343210343632
0.23754949452814414       -0.0788004853268566      0.042027283896697146     -0.013803464641246066    -0.08673297752860612     0.2284689637788204       -0.33889668090878894     0.023694739601362452     -0.023694739601362452    0.33889668090878894      -0.2284689637788204      0.08673297752860612
0.2405583697537388        -0.07982511686961583     0.042574796006135215     -0.013877615768769655    -0.08743630879590467     0.23186415868255872      -0.34288508483271596     0.023584617354252595     -0.023584617354252595    0.34288508483271596      -0.23186415868255872     0.08743630879590467
0.24304612605146594       -0.08067550875985861     0.04302762754497316      -0.013942724029994427    -0.0880390310047755      0.234663004034659        -0.3462047962746144      0.023502761235179935     -0.023502761235179935    0.3462047962746144       -0.234663004034659       0.0880390310047755
0.24798819215498813       -0.0823648594970344      0.04392720255589418      -0.014072065208289183    -0.08923637215954298     0.2402230658285946       -0.3527995874949081      0.023340149506770477     -0.023340149506770477    0.3527995874949081       -0.2402230658285946      0.08923637215954298
0.24983765895198748       -0.08299402061855653     0.044262823092449485     -0.014111442582128438    -0.08964534228827835     0.24233074018594775      -0.35522228084297525     0.023246198368749155     -0.023246198368749155    0.35522228084297525      -0.24233074018594775     0.08964534228827835
0.25650309469075666       -0.08528161148922433     0.04548488273706643      -0.014249708454165882    -0.09110740858391297     0.2500190373729844       -0.36401670500631156     0.0228902590494141       -0.0228902590494141      0.36401670500631156      -0.2500190373729844      0.09110740858391297
0.25791524183674674       -0.08576836216467634     0.045744598522849414     -0.014277098591667443    -0.09141132312747427     0.2516621255312312       -0.3658789142645708      0.022805465605865265     -0.022805465605865265    0.3658789142645708       -0.2516621255312312      0.09141132312747427
0.25981018638041653       -0.08642152748048246     0.04609310824619648      -0.0143138531124384      -0.09181914267212911     0.25386696724980073      -0.368377792149308       0.022691682227378086     -0.022691682227378086    0.368377792149308        -0.25386696724980073     0.09181914267212911
0.2599601896221683        -0.08647290839025787     0.046120496380332325     -0.014316716400556286    -0.09185119324174394     0.2540404403192876       -0.3685741715237379      0.022682537962706327     -0.022682537962706327    0.3685741715237379       -0.2540404403192876      0.09185119324174394
0.2599874993320408        -0.0864822628396855      0.046125482685884546     -0.014317237693075486    -0.09185702839401938     0.25407202296472275      -0.36860992450932667     0.022680873150584497     -0.022680873150584497    0.36860992450932667      -0.25407202296472275     0.09185702839401938
0.26167885663611723       -0.08706055423697404     0.04643270832738224      -0.014353691708268154    -0.09223775032487401     0.2560044666230222       -0.37083400028916746     0.02259178334127121      -0.02259178334127121     0.37083400028916746      -0.2560044666230222      0.09223775032487401
0.26422774994916776       -0.08794058773553054     0.04690225787862082      -0.014398485796000327    -0.0927683450192         0.25899400592292227      -0.3741818922909249      0.022419541348802603     -0.022419541348802603    0.3741818922909249       -0.25899400592292227     0.0927683450192
0.27227192463338423       -0.09071416480802477     0.04837918015319782      -0.014531153905859892    -0.09441540477989575     0.2684412544522035       -0.38469048569908265     0.021833826466983418     -0.021833826466983418    0.38469048569908265      -0.2684412544522035      0.09441540477989575
0.2725592272132475        -0.0908132247961104      0.04843192932839612      -0.014535892227903423    -0.09447423051864623     0.2687786686657956       -0.38506580648902294     0.021812907304581197     -0.021812907304581197    0.38506580648902294      -0.2687786686657956      0.09447423051864623
0.2731926972769421        -0.09103028997645783     0.048547406253125855     -0.014546139386485177    -0.09460291873947883     0.2695182411663526       -0.38588735625823406     0.021766196352402588     -0.021766196352402588    0.38588735625823406      -0.2695182411663526      0.09460291873947883
0.27743113748733095       -0.08917596143881312     0.047511906155175004     -0.014607880000042322    -0.09424772441227058     0.262456121342982        -0.37931916134332067     0.022615315588068015     -0.022615315588068015    0.37931916134332067      -0.262456121342982       0.09424772441227058
0.28122313049252534       -0.08744924499106581     0.046639346089772375     -0.014655800400113841    -0.09360365331326992     0.2561933266509935       -0.3734397298519042      0.023642749887640827     -0.023642749887640827    0.3734397298519042       -0.2561933266509935      0.09360365331326992
0.28208105367086034       -0.08705807342106797     0.04644253879406186      -0.014663711878333324    -0.0934433779732837      0.2547889157109883       -0.37209861073765493     0.02386631705338291      -0.02386631705338291     0.37209861073765493      -0.2547889157109883      0.0934433779732837
0.28257091674325346       -0.08683471949853627     0.04633016436593039      -0.014668229230382593    -0.09335186282081179     0.25398701517333333      -0.3713328490163942      0.023993971022248976     -0.023993971022248976    0.3713328490163942       -0.25398701517333333     0.09335186282081179
0.2870558166546277        -0.08496098974016167     0.04534787023347826      -0.014712495193479039    -0.09272834955380477     0.24711560940684202      -0.36481557095467443     0.024971611994027566     -0.024971611994027566    0.36481557095467443      -0.24711560940684202     0.09272834955380477
0.28869286938755634       -0.08427705152920237     0.044989318799589575     -0.01472865290430754     -0.09250075827686624     0.24460744783994337      -0.3624366710744037      0.025328464957594107     -0.025328464957594107    0.3624366710744037       -0.24460744783994337     0.09250075827686624
0.2898065312696853        -0.08381193804115247     0.04474475090944833      -0.014740820315768286    -0.09235290461703316     0.24289484754757687      -0.3608214100737232      0.025573657909113135     -0.025573657909113135    0.3608214100737232       -0.24289484754757687     0.09235290461703316
0.29347564499632856       -0.08232534908633671     0.04389275642298203      -0.014779439087532553    -0.09209018525385759     0.23721121109148938      -0.3554467237917498      0.026145327446402838     -0.026145327446402838    0.3554467237917498       -0.23721121109148938     0.09209018525385759
0.2937390920084537        -0.08221810751763686     0.043831335922596165     -0.01478223631962598     -0.09207115254598922     0.2368012775245584       -0.35505916808156623     0.02618673801101862      -0.02618673801101862     0.35505916808156623      -0.2368012775245584      0.09207115254598922
0.2938006126825763        -0.0821938759864781      0.0438181072421124       -0.014782660400254279    -0.09206407184763615     0.23671143209827633      -0.3549727153003106      0.026197211354398085     -0.026197211354398085    0.3549727153003106       -0.23671143209827633     0.09206407184763615
0.29527815484730824       -0.08160253035856767     0.04350660390468125      -0.01479248948074425     -0.09185520692606869     0.2345549145082022       -0.3528948303541562      0.026484708919885337     -0.026484708919885337    0.3528948303541562       -0.2345549145082022      0.09185520692606869
0.3014983120639454        -0.07911308344952403     0.042195237110163826     -0.014833867945198228    -0.09097592734934956     0.2254764064487466       -0.3441473500103325      0.02769501621223628      -0.02769501621223628     0.3441473500103325       -0.2254764064487466      0.09097592734934956
0.30383070779204197       -0.07822479151061501     0.04176715599389921      -0.014842257386897621    -0.09051714458712296     0.2223820214553372       -0.3411200805505181      0.02822091450805802      -0.02822091450805802     0.3411200805505181       -0.2223820214553372      0.09051714458712296