% Model:              Cylinder_potential.mph
% Version:            COMSOL 6.2.0.339
% Date:               Apr 30 2024, 08:03
% Dimension:          1
% Nodes:              686
% Expressions:        11
% Description:        Line graph
% Arc length (m)          Magnetic scalar potential Magnetic scalar potential Magnetic scalar potential Magnetic scalar potential Magnetic scalar potential Magnetic scalar potential Magnetic scalar potential Magnetic scalar potential Magnetic scalar potential Magnetic scalar potential Magnetic scalar potential
0                         8.562820914942513E-6     -1.1742417937593195E-5   1.535662016346552E-6     -1.1958963917485174E-5   -4.62102475772459E-5     5.8495543708037565E-5    -2.4244260048270332E-5   2.4244260048270332E-5    -5.849554370803149E-5    4.62102475772459E-5      1.1958963917483873E-5
0.0057190743874760116     0.0016521095042920683    0.0016369063090269677    -4.121564316699649E-6    0.008198451678398262     0.0015900136612299973    -0.001622986175763579    0.008231424192931854     -0.008231424192931854    0.0016229861757635867    -0.0015900136612299973   -0.008198451678398265
0.009235105925359945      0.002658996293552914     0.0026526539934960576    -6.422851166668466E-6    0.013250263162927349     0.0026142779887157004    -0.0026656607980490308   0.013301645972260693     -0.013301645972260693    0.0026656607980490403    -0.0026142779887157004   -0.013250263162927352
0.010247029701394007      0.002949293405654965     0.0029453607433605486    -7.948060930504754E-6    0.014702876797669582     0.0029057031750497272    -0.002969287662493748    0.014766461285113618     -0.014766461285113618    0.0029692876624937575    -0.0029057031750497272   -0.014702876797669582
0.010314566383261246      0.0029686680899655296    0.0029648962490124364    -8.04985477015997E-6     0.014799825507887754     0.0029251531480256384    -0.0029895519861869004   0.014864224346049029     -0.014864224346049029    0.002989551986186911     -0.0029251531480256384   -0.014799825507887754
0.011507381907237135      0.0033129906644784324    0.0033088284625861445    -8.034382972428399E-6    0.016520329184825606     0.0032683665269118856    -0.003332641590691296    0.016584604248605035     -0.016584604248605035    0.0033326415906913065    -0.0032683665269118856   -0.01652032918482561
0.011555538692565705      0.0033268917816011616    0.0033227138199140253    -8.033758339342421E-6    0.016589789989587052     0.0032822228631824114    -0.0033464929298971345   0.01665406005630179      -0.01665406005630179     0.0033464929298971445    -0.0032822228631824114   -0.016589789989587055
0.013484298546033594      0.0038836852917166266    0.0038785643520452898    -8.323239188997515E-6    0.019369770682813155     0.003835029515946654     -0.0039016154294586203   0.019436356596325133     -0.019436356596325133    0.0039016154294586308    -0.003835029515946654    -0.019369770682813158
0.02524240439416375       0.007271642234960852     0.007255123756556688     -4.58016727426585E-6     0.03629033507049472      0.0072037661306513295    -0.00724040746884546     0.03632697640868886      -0.03632697640868886     0.007240407468845467     -0.0072037661306513295   -0.03629033507049472
0.02851587422232387       0.008215539770796055     0.008197201517940605     1.8567465449956396E-6    0.04103011108159392      0.00816795199840972      -0.008153098026049764    0.04101525710923397      -0.04101525710923397     0.008153098026049767     -0.00816795199840972     -0.04103011108159392
0.029212292584665366      0.008416350412296297     0.008397625009288338     3.2261756877297715E-6    0.04203848055520855      0.008373078906023379     -0.008347269500521549    0.04201267114970672      -0.04201267114970672     0.00834726950052155      -0.008373078906023379    -0.04203848055520855
0.0387889706441858        0.011178036999929239     0.011162923810288699     1.860316750100662E-6     0.05585228669772499      0.011140138698008065     -0.011125256164007263    0.0558374041637242       -0.0558374041637242      0.011125256164007264     -0.011140138698008065    -0.05585228669772499
0.04462561803009844       0.01286316574671803      0.012845450836612015     6.661645228327184E-6     0.06428933058418543      0.012836667597313344     -0.01278337443548673     0.06423603742235882      -0.06423603742235882     0.012783374435486734     -0.012836667597313344    -0.06428933058418543
0.045075684244111854      0.012993381441823187     0.012975897303361784     6.871127518258413E-6     0.06494193930380476      0.012968413536512048     -0.012913444516365986    0.06488697028365871      -0.06488697028365871     0.01291344451636599      -0.012968413536512046    -0.06494193930380476
0.05119800952809747       0.01476472711872908      0.014750382205187486     9.720749818840706E-6     0.07381948385229598      0.014760575377379702     -0.01468280937882898     0.07374171785374528      -0.07374171785374528     0.014682809378828984     -0.0147605753773797      -0.07381948385229598
0.05749049549371788       0.016584115473691614     0.01657484176969965      -1.4411087477634275E-6   0.0828869918214911       0.016550529926724705     -0.01656205879670682     0.08289852069147324      -0.08289852069147324     0.016562058796706827     -0.016550529926724705    -0.0828869918214911
0.0653070755850067        0.018846824577679083     0.018837417761866985     -7.761581773498255E-6    0.0941748561138651       0.01878755780314883      -0.018849650457336824    0.09423694876805311      -0.09423694876805311     0.01884965045733683      -0.01878755780314883     -0.0941748561138651
0.07077328410216537       0.020431219607287936     0.020430732382611578     -1.9702187908167185E-6   0.1021467554872473       0.02042187705809561      -0.02043763880842217     0.10216251723757386      -0.10216251723757386     0.020437638808422177     -0.02042187705809561     -0.1021467554872473
0.07081192883164467       0.02044242088457463      0.020441996719180663     -1.929275300446815E-6    0.10220311482548942      0.020433431287190964     -0.020448865489594563    0.10221854902789303      -0.10221854902789303     0.02044886548959457      -0.020433431287190964    -0.10220311482548942
0.07370615241168414       0.021283610501542614     0.021285226374504133     -5.584334752017385E-6    0.1064005627875895       0.02126612078141911      -0.021310795459435282    0.10644523746560568      -0.10644523746560568     0.021310795459435285     -0.02126612078141911     -0.1064005627875895
0.07981971083739753       0.02305852792580978      0.0230616595247944       -1.381065136885892E-5    0.11524679182052726      0.02301268011728822      -0.023123165328239128    0.11535727703147819      -0.11535727703147819     0.023123165328239135     -0.023012680117288214    -0.11524679182052726
0.08682987846249375       0.025103684539686255     0.025104590923228004     -9.595003443566496E-6    0.12548276183528223      0.02506802367653724      -0.02514478370408581     0.1255595218628308       -0.1255595218628308      0.02514478370408582      -0.025068023676537238    -0.12548276183528223
0.08765935098201225       0.02534513694364674      0.02534577131950448      -9.900298600664672E-6    0.1266879866514042       0.0253074388768173       -0.025386641265622654    0.1267671890402096       -0.1267671890402096      0.025386641265622664     -0.025307438876817297    -0.1266879866514042
0.08813435930829647       0.025483407832173767     0.02548388643926077      -1.0075129879801427E-5   0.12737817446261057      0.025444543133915584     -0.025525144172954033    0.12745877550164905      -0.12745877550164905     0.02552514417295404      -0.02544454313391558     -0.12737817446261057
0.08856899529176245       0.025610290196595366     0.025611067070275436     -1.0639587252564778E-5   0.12801122325500675      0.02557006246862533      -0.025655179166645885    0.12809633995302733      -0.12809633995302733     0.02565517916664589      -0.025570062468625324    -0.12801122325500675
0.08927689945039638       0.025816947162075048     0.025818209831155504     -1.1558935251239247E-5   0.1290422880766116       0.025774499428311462     -0.02586697091032141     0.12913475955862158      -0.12913475955862158     0.025866970910321422     -0.025774499428311455    -0.1290422880766116
0.10265174285823973       0.029726068279915467     0.029740886098634157     -7.367956343195322E-6    0.1486453230303606       0.02974104991069874      -0.02979999356144434     0.1487042666811062       -0.1487042666811062      0.029799993561444346     -0.029741049910698737    -0.1486453230303606
0.10822954593227298       0.031368037850020014     0.03137957397632312      -1.072264777024815E-6    0.15687050856990126      0.031398357169821214     -0.031406935288037445    0.15687908668811748      -0.15687908668811748     0.031406935288037445     -0.03139835716982121     -0.15687050856990126
0.11302212566440466       0.03277991166446226      0.03279041639023064      -1.0822252664218892E-5   0.16388778348895955      0.03276813683111052      -0.0328547148524243      0.16397436151027328      -0.16397436151027328     0.0328547148524243       -0.03276813683111051     -0.16388778348895955
0.11610614555884648       0.03369331770475764      0.03370224986413845      -8.08120723681238E-6     0.16846106017298337      0.03368778935395283      -0.033752439011847366    0.1685257098308779       -0.1685257098308779      0.033752439011847366     -0.03368778935395282     -0.16846106017298337
0.11876731381126972       0.03448148614698672      0.034489061355411105     -5.715988036050947E-6    0.17240729240806257      0.034481347820115665     -0.034527075724404103    0.17245302031235096      -0.17245302031235096     0.034527075724404103     -0.03448134782011565     -0.17240729240806257
0.12544513964247433       0.03646183010177158      0.036466606599305916     3.076099564561615E-6     0.18233578439971915      0.03648846399263284      -0.03646385519611638     0.18231117560320267      -0.18231117560320267     0.03646385519611638      -0.03648846399263284     -0.18233578439971915
0.12760234385519972       0.037102252579452474     0.03710766452450687      -1.3131184941779495E-6   0.18552224625844885      0.037113235940638964     -0.03712374088859242     0.18553275120640228      -0.18553275120640228     0.03712374088859242      -0.037113235940638964    -0.18552224625844885
0.12988052837113645       0.03777859122356589      0.03778467425330126      -5.94849263238167E-6     0.18888741123650601      0.037773046342242475     -0.037820634283301555    0.18893499917756507      -0.18893499917756507     0.037820634283301555     -0.037773046342242475    -0.18888741123650601
0.13197090158646246       0.038400663033796065     0.03840499110635129      -1.2189517939227492E-5   0.19196754131488908      0.038364889179704834     -0.03846240532321868     0.1920650574584029       -0.1920650574584029      0.03846240532321868      -0.038364889179704834    -0.19196754131488908
0.1401943663327749        0.040851061106030415     0.04085254782608726      -4.3170481180230475E-6   0.20424249749785048      0.040838253073728896     -0.04087278945867309     0.20427703388279472      -0.20427703388279472     0.04087278945867309      -0.04083825307372888     -0.20424249749785048
0.14110087673520721       0.04112117977390414      0.04112235327858569      -3.449229503131235E-6    0.2055956224655528       0.041110903369936315     -0.04113849720596138     0.20562321630157795      -0.20562321630157795     0.04113849720596138      -0.0411109033699363      -0.2055956224655528
0.1429352906061836        0.04166948585578829      0.04166841210982736      -9.641472790706326E-6    0.2083056421498958       0.04162769872674274      -0.04170483050906841     0.20838277393222154      -0.20838277393222154     0.04170483050906841      -0.04162769872674273     -0.2083056421498958
0.14338237028128792       0.04180308139471436      0.04180224642234784      -1.0904687967620256E-5   0.2089692833046017       0.041756957725744386     -0.04184419522948536     0.20905652080834278      -0.20905652080834278     0.04184419522948537      -0.04175695772574438     -0.2089692833046017
0.1462707720249316        0.04267157664643022      0.042669405042149826     -1.21593692094391E-5     0.21330273094247212      0.04261642435675134      -0.04271369931042686     0.21340000589614774      -0.21340000589614774     0.04271369931042686      -0.04261642435675133     -0.21330273094247212
0.15361570941078126       0.0448792175414661       0.04487170255943281      -1.2380305697540674E-5   0.22432402153844042      0.04480715137257612      -0.044906193818156456    0.22442306398402087      -0.22442306398402087     0.044906193818156456     -0.04480715137257612     -0.22432402153844042
0.15429208961789734       0.045082054675522655     0.04507421253983573      -1.2359335704515267E-5   0.22533730962773438      0.04500909092564384      -0.04510796561127998     0.22543618431337062      -0.22543618431337062     0.04510796561127998      -0.04500909092564384     -0.22533730962773438
0.158754376585347         0.04641936651837094      0.046417317691815535     -9.27746054478033E-6     0.23205357627000933      0.04637611019652564      -0.0464503298808839      0.23212779595436767      -0.23212779595436767     0.0464503298808839       -0.04637611019652564     -0.23205357627000933
0.16021579010995424       0.04686006675177173      0.04685845846873335      -4.7737576336252195E-6   0.23427641387920894      0.04683614687212213      -0.04687433693319114     0.2343146039402781       -0.2343146039402781      0.04687433693319114      -0.04683614687212213     -0.23427641387920894
0.163043489187859         0.047715962320429406     0.047711416330736584     -7.906378182152303E-6    0.23853454812033986      0.04767069883862235      -0.04773394986407958     0.23859779914579726      -0.23859779914579726     0.04773394986407958      -0.04767069883862235     -0.23853454812033986
0.16564888862961108       0.048504571636817886     0.048497318888355234     -1.0792727685226733E-5   0.24245792902796048      0.04843964248068906      -0.048525984302170894    0.24254427084944247      -0.24254427084944247     0.048525984302170894     -0.04843964248068906     -0.24245792902796048
0.1718548163177541        0.05038179313068982      0.050379151771353235     -1.3574148677005748E-5   0.25184674498073123      0.05031957245797207      -0.05042816564738813     0.2519553381701475       -0.2519553381701475      0.05042816564738813      -0.05031957245797207     -0.25184674498073123
0.1730058792131959        0.05072997637044143      0.05072819032221806      -1.4090041007874528E-5   0.25358816354350544      0.05066825806173984      -0.050780978389802854    0.2537008838715687       -0.2537008838715687      0.050780978389802854     -0.05066825806173984     -0.25358816354350544
0.17412638288940605       0.051068784316570276     0.05106753423782322      -1.4139210843055188E-5   0.25528361450323794      0.051008477236956944     -0.0511215909237014      0.2553967281899826       -0.2553967281899826      0.0511215909237014       -0.051008477236956944    -0.25528361450323794
0.17700568764132482       0.0519447742081203       0.05194203120074489      -7.38086866692443E-6     0.25968611854380746      0.05190702171132639      -0.05196606866066181     0.259745165493143        -0.259745165493143       0.05196606866066181      -0.05190702171132639     -0.25968611854380746
0.17995952494788142       0.05284286589414802      0.05284385494918642      1.5009042422884776E-6    0.2642233002528243       0.0528518366762324       -0.052839829442294116    0.26421129301888624      -0.26421129301888624     0.052839829442294116     -0.0528518366762324      -0.2642233002528243
0.18193833394324488       0.053448513193259425     0.053447737393709234     1.0623185755122137E-6    0.26724448784194843      0.05345043506891094      -0.05344193652030686     0.2672359892933446       -0.2672359892933446      0.05344193652030686      -0.053450435068910944    -0.26724448784194843
0.18746254731319967       0.055138356714311124     0.055136142470465735     -5.226842418609256E-6    0.27566423347034485      0.055110806613100534     -0.05515262135244943     0.2757060482096939       -0.2757060482096939      0.05515262135244943      -0.055110806613100534    -0.27566423347034485
0.18789931381337904       0.05527240005252998      0.05527054730781655      -4.558943991412185E-6    0.2763382062525438       0.05524860604242407      -0.055285077594355386    0.2763746778044753       -0.2763746778044753      0.055285077594355386     -0.05524860604242407     -0.2763382062525438
0.1911436214762479        0.056268075840763154     0.05626890831665038      4.022148531521429E-7     0.28134448549089         0.05627218212783745      -0.056268964409012266    0.281341267772065        -0.281341267772065       0.056268964409012266     -0.05627218212783745     -0.28134448549089
0.19173685987612457       0.056449794669425776     0.05645104916853096      1.4524677181813566E-6    0.28225854671531714      0.05645936803761411      -0.0564477482958687      0.28224692697357184      -0.28224692697357184     0.0564477482958687       -0.05645936803761411     -0.28225854671531714
0.19249665956342293       0.056684259951870056     0.056684777774928266     9.061353641101063E-7     0.2834264777699813       0.05668943796250117      -0.05668218887958833     0.2834192286870686       -0.2834192286870686      0.05668218887958833      -0.05668943796250117     -0.2834264777699813
0.19543794035524312       0.05758860372369955      0.057586779811237276     -3.0989336688404327E-6   0.2879251511464355       0.05757073625163741      -0.05759552772098816     0.28794994261578644      -0.28794994261578644     0.05759552772098816      -0.05757073625163741     -0.2879251511464355
0.1977902954697121        0.05831059342634808      0.058308695746854114     -9.609262760811098E-7    0.29154343038815417      0.05830105668276189      -0.05830874409297057     0.29155111779836296      -0.29155111779836296     0.05830874409297057      -0.05830105668276189     -0.29154343038815417
0.19864905759369322       0.05857416647564039      0.05857224186639742      -1.8041496705212279E-7   0.2928643368906048       0.05856767098804329      -0.05856911430777974     0.2928657802103414       -0.2928657802103414      0.05856911430777974      -0.05856767098804329     -0.2928643368906048
0.20209428367599228       0.0596354499106352       0.059636255127032314     -8.603833960255005E-7    0.29817622366878327      0.059634424026242444     -0.05964130709341067     0.2981831067359515       -0.2981831067359515      0.05964130709341067      -0.059634424026242444    -0.29817622366878327
0.20241729163025363       0.059735684520442485     0.05973620271041258      -1.7282365289475455E-6   0.29867306422600687      0.05973032614423697      -0.05974415203646857     0.2986868901182385       -0.2986868901182385      0.05974415203646857      -0.05973032614423697     -0.29867306422600687
0.20332913739160757       0.06001864505713504      0.060018352976560926     -4.178170625903651E-6    0.30007563636144924      0.06000105613290909      -0.06003448149791634     0.3001090617264565       -0.3001090617264565      0.06003448149791634      -0.06000105613290909     -0.30007563636144924
0.20495102058562023       0.06052105957898141      0.06052056670636862      -4.853248597890404E-6    0.3025844062826771       0.060500167966751506     -0.06053899395553465     0.30262323227146026      -0.30262323227146026     0.06053899395553466      -0.060500167966751506    -0.3025844062826771
0.20728030446399998       0.06124260725289575      0.06124182601077503      -5.822768624117993E-6    0.3061874014636201       0.06121697245203716      -0.061263554601030126    0.3062339836126131       -0.3062339836126131      0.06126355460103015      -0.06121697245203716     -0.3061874014636201
0.20866440251724735       0.06167148403200909      0.06167139770146232      -6.254701983308259E-6    0.3083321423604719       0.0616462062324356       -0.06169624384830211     0.3083821799763385       -0.3083821799763385      0.06169624384830211      -0.0616462062324356      -0.3083321423604719
0.21006057851650822       0.06210318957205732      0.06210201917589678      -4.874814028681147E-6    0.3104929374156903       0.062080179127460985     -0.06211917763969045     0.3105319359279198       -0.3105319359279198      0.06211917763969047      -0.062080179127460985    -0.3104929374156903
0.21122142909521674       0.06246266085226811      0.06246101829779995      -3.543742251945369E-6    0.3122942016289283       0.062443558219855845     -0.06247190815787144     0.31232255156694394      -0.31232255156694394     0.06247190815787145      -0.062443558219855845    -0.3122942016289283
0.21136346344175488       0.0625068456084838       0.06250537730152082      -3.466090491024908E-6    0.31251595875956595      0.06248857632563076      -0.06251630504955899     0.31254368748349426      -0.31254368748349426     0.062516305049559        -0.06248857632563076     -0.31251595875956595
0.21342205581563947       0.06314724283918553      0.06314830000999663      -2.3406350871345554E-6   0.3157300231680124       0.06314105181127033      -0.06315977689196742     0.3157487482487096       -0.3157487482487096      0.06315977689196742      -0.06314105181127033     -0.3157300231680124
0.21758984130040193       0.06444649004950044      0.06444443732639138      -1.1229597318646595E-6   0.32222180023924757      0.0644358400412458       -0.06444482371910075     0.3222307839171026       -0.3222307839171026      0.06444482371910075      -0.0644358400412458      -0.32222180023924757
0.2191148185603182        0.06492126930957405      0.06491893419943824      -2.3621092542591384E-6   0.3245898927804458       0.06490481554214962      -0.06492371241618373     0.3246087896544799       -0.3246087896544799      0.06492371241618372      -0.06490481554214962     -0.3245898927804458
0.22023875479518182       0.06527267861288612      0.06527074340387869      -2.743508403964792E-6    0.3263466134037924       0.06525589895224797      -0.06527784701947972     0.3263685614710243       -0.3263685614710243      0.06527784701947972      -0.06525589895224797     -0.3263466134037924
0.22081536844419          0.06545296232862803      0.06545123228112507      -2.9391778277444936E-6   0.3272478647893203       0.06543601547480815      -0.06545952889743013     0.3272713782119423       -0.3272713782119423      0.06545952889743015      -0.06543601547480815     -0.3272478647893203
0.22454147098127364       0.06661595818080646      0.06661592285522763      -2.425825393635172E-6    0.33306998162572127      0.06660614890249546      -0.06662555550564456     0.33308938822887035      -0.33308938822887035     0.06662555550564457      -0.06660614890249546     -0.33306998162572127
0.22612374350318631       0.0671105595087179       0.06710910995669124      -3.108976842671244E-6    0.3355360129801387       0.06709377494526722      -0.0671186467600086      0.33556088479488017      -0.33556088479488017     0.06711864676000863      -0.06709377494526722     -0.3355360129801387
0.22697179873074644       0.06737664671728438      0.06737409389658286      -3.2261618030383064E-6   0.3368626704771051       0.06735608360796769      -0.06738189290239201     0.3368884797715295       -0.3368884797715295      0.06738189290239202      -0.06735608360796769     -0.3368626704771051
0.22884666193751507       0.0679649068929434       0.06795991498834916      -3.4852319242275557E-6   0.33979561782323736      0.06793599025146385      -0.06796387210685767     0.3398234996786313       -0.3398234996786313      0.0679638721068577       -0.06793599025146385     -0.33979561782323736
0.23191150757825035       0.06892857717760756      0.06892123753961778      -9.179932822376202E-7    0.34461719500093946      0.06890288629050928      -0.06891023023676718     0.3446245389471974       -0.3446245389471974      0.0689102302367672       -0.06890288629050928     -0.34461719500093946
0.23644234206125203       0.07035400247290963      0.07034776046224425      -2.399535846947843E-6    0.35174168818916407      0.07032567829752576      -0.07034487458430133     0.3517608844759398       -0.3517608844759398      0.07034487458430136      -0.07032567829752576     -0.35174168818916407
0.23832064919996854       0.07094567340463337      0.07093874049338643      -7.232042856376543E-7    0.35470467547228335      0.07092198185375002      -0.07092776748803513     0.3547104611065686       -0.3547104611065686      0.07092776748803516      -0.07092198185375002     -0.35470467547228335
0.24551702539672454       0.07322317472195598      0.07320465647571721      -1.4766864212254467E-6   0.3660544121253785       0.07316171323755477      -0.0731735267289246      0.3660662256167485       -0.3660662256167485      0.07317352672892462      -0.07316171323755477     -0.3660544121253785
0.24837362098111415       0.07412722698779471      0.07410410995240477      -1.7757805322868504E-6   0.3705596807106744       0.07405077275949577      -0.0740649790037541      0.37057388695493293      -0.37057388695493293     0.07406497900375411      -0.07405077275949577     -0.3705596807106744
0.24923339055256816       0.07439988082133518      0.07437582575950383      -1.052001769024034E-6    0.3719230309141056       0.07432350762876508      -0.07433192364291728     0.37193144692825797      -0.37193144692825797     0.0743319236429173       -0.07432350762876508     -0.3719230309141056
0.249993716434554         0.0746398348435231       0.07461510473608618      6.507523977620804E-7     0.37312758690489556      0.07456824753080342      -0.07456304151162134     0.3731223808857137       -0.3731223808857137      0.07456304151162138      -0.07456824753080342     -0.37312758690489556
0.2507514952055764        0.07435527147777088      0.07433829003641729      2.9290326120684127E-6    0.3717371291952417       0.07431604328415843      -0.0742926110232619      0.3717136969343453       -0.3717136969343453      0.07429261102326193      -0.07431604328415843     -0.3717371291952417
0.2515569591993132        0.07405438206428377      0.07403990761885107      3.331416659323084E-6     0.37024181265175793      0.074024284394623        -0.07399763306134845     0.37021516131848353      -0.37021516131848353     0.07399763306134846      -0.074024284394623       -0.37024181265175793
0.2527136707888956        0.07362228047505133      0.0736114062789895       3.9092727702613E-6       0.3680944168781521       0.07360529497794693      -0.07357402079578487     0.36806314269599016      -0.36806314269599016     0.0735740207957849       -0.07360529497794693     -0.3680944168781521
0.2592260785064858        0.07113097596334259      0.07120532932536822      4.953915590385509E-6     0.3558977555651513       0.07137385171178115      -0.0713342203870581      0.3558581242404284       -0.3558581242404284      0.07133422038705811      -0.07137385171178115     -0.3558977555651513
0.26030669964692577       0.07074304279126682      0.07085042886396314      4.17686296553205E-6      0.3540540796262851       0.071081908461218        -0.07104849355749378     0.35402066472256105      -0.35402066472256105     0.07104849355749379      -0.071081908461218       -0.3540540796262851
0.2631974542666113        0.06973824520702629      0.06982750064936487      5.890870716814946E-6     0.3489825558450144       0.07002957501690936      -0.06998244805117486     0.34893542887928         -0.34893542887928        0.06998244805117487      -0.07002957501690936     -0.3489825558450144
0.26502968057561893       0.06910138154639739      0.06917914538107267      6.977247981200025E-6     0.3457681082279376       0.06936258204234805      -0.06930676405849848     0.345712290244088        -0.345712290244088       0.06930676405849849      -0.06936258204234805     -0.3457681082279376
0.26831019899267095       0.0679328694121693       0.0679916417101573       2.404689597230853E-6     0.3398502827131994       0.06811880506452225      -0.06809956754774446     0.3398310451964217       -0.3398310451964217      0.06809956754774446      -0.06811880506452225     -0.3398502827131994
0.2708978371150551        0.06707022226041254      0.06716029637255751      -3.3707121299833765E-6   0.3356078507899777       0.06732696174832756      -0.06735392744536749     0.3356348164870176       -0.3356348164870176      0.06735392744536749      -0.06732696174832756     -0.3356078507899777
0.2716894689423252        0.06681632937924716      0.06689947964764428      1.985726268769058E-8     0.3343311771304779       0.06706585961348936      -0.0670657007553879      0.33433101827237643      -0.33433101827237643     0.0670657007553879       -0.06706585961348936     -0.3343311771304779
0.2746841312319826        0.06585587856025936      0.06591283663544642      1.284603472413579E-5     0.32950165116575447      0.06607813692471706      -0.06597536864692402     0.3293988828879615       -0.3293988828879615      0.06597536864692402      -0.06607813692471706     -0.32950165116575447
0.2768501759772473        0.06514819822066396      0.06514543080761222      2.3749142025483814E-6    0.3257421885209747       0.06514939563831891      -0.06513039632469855     0.32572318920735444      -0.32572318920735444     0.06513039632469855      -0.06514939563831891     -0.3257421885209747
0.2800780434036948        0.0641007764532048       0.06420804160231716      2.0385703096967626E-6    0.32083383199459986      0.06443072618178074      -0.0644144176193032      0.32081752343212233      -0.32081752343212233     0.06441441761930321      -0.06443072618178074     -0.32083383199459986
0.28024079711387156       0.06405167886273139      0.06415892225005702      3.050200499568113E-6     0.32059232527763204      0.06438560982670663      -0.06436120822271012     0.3205679236736355       -0.3205679236736355      0.06436120822271013      -0.06438560982670663     -0.32059232527763204