% Model:              Cylinder_potential.mph
% Version:            COMSOL 6.2.0.415
% Date:               Nov 25 2024, 19:16
% Dimension:          1
% Nodes:              1063
% Expressions:        11
% Description:        Line graph
% Arc length (m)          Magnetic scalar potential Magnetic scalar potential Magnetic scalar potential Magnetic scalar potential Magnetic scalar potential Magnetic scalar potential Magnetic scalar potential Magnetic scalar potential Magnetic scalar potential Magnetic scalar potential Magnetic scalar potential
0                         -1.6012385560553034E-7   2.737264023945034E-4     -0.0026904270720187395   -0.00994084932860266     -0.009940208833180239    -0.011583207742969682    0.01158256724754726      -0.01158256724754726     0.011583207742969682     0.009940208833180239     0.00994084932860266
0.011598276840334654      -1.7756993571349365E-8   2.787699650205862E-4     -0.0027227902166587522   -0.010054886485560396    -0.010054815457586108    -0.011727506275683912    0.011727435247709627     -0.011727435247709627    0.011727506275683912     0.010054815457586108     0.010054886485560396
0.012970307569407424      -4.9777160504800383E-8   2.793667986944863E-4     -0.0027266416892772283   -0.010068565915346467    -0.010068366806704445    -0.011744766707513385    0.011744567598871367     -0.011744567598871367    0.011744766707513385     0.010068366806704445     0.010068565915346467
0.01780237146329          -1.6254685963523995E-7   2.8146874756865997E-4    -0.002740205934875864    -0.010116742590516748    -0.010116092403078206    -0.011805555075928708    0.011804904888490168     -0.011804904888490168    0.011805555075928708     0.010116092403078206     0.010116742590516748
0.021331789853818783      -1.2170368552050827E-7   2.8298469180798504E-4    -0.002750395434463832    -0.010152871069802416    -0.010152384255060333    -0.011850779220650327    0.011850292405908245     -0.011850292405908245    0.011850779220650327     0.010152384255060333     0.010152871069802416
0.03171188349400844       -8.139639432820411E-8    2.8753547420254746E-4    -0.002780436520535533    -0.010259302452323147    -0.010258976866745834    -0.011984515297538436    0.011984189711961125     -0.011984189711961125    0.011984515297538436     0.010258976866745834     0.010259302452323147
0.03407010271785049       -3.5357715278262754E-8   2.8864143526331705E-4    -0.0027872601094629692   -0.010283186847492486    -0.010283045416631375    -0.012015035459072392    0.01201489402821128      -0.01201489402821128     0.012015035459072392     0.010283045416631375     0.010283186847492486
0.03731029585212209       -1.6251996927781203E-7   2.9020074385508414E-4    -0.0027966580167988553   -0.01031635487556873     -0.010315704795691619    -0.012057559338699236    0.012056909258822128     -0.012056909258822128    0.012057559338699236     0.010315704795691619     0.01031635487556873
0.03911878835738647       -2.1290963546780424E-7   2.9111129481160193E-4    -0.0028019026455961497   -0.010334702517220733    -0.010333850878678861    -0.012081370286090343    0.012080518647548475     -0.012080518647548475    0.012081370286090343     0.010333850878678861     0.010334702517220733
0.03971597728009879       -2.2954899138453393E-7   2.914119711722806E-4     -0.0028036344936476975   -0.010340761159056725    -0.010339842963091183    -0.012089232986090407    0.012088314790124871     -0.012088314790124871    0.012089232986090407     0.010339842963091183     0.010340761159056725
0.04064011072161411       -2.6906837140923405E-7   2.9179395093236973E-4    -0.0028063222911814873   -0.010350445448671664    -0.010349369175186026    -0.012101209154265883    0.012100132880780247     -0.012100132880780247    0.012101209154265883     0.010349369175186026     0.010350445448671664
0.04299425824887959       -3.202168963099749E-7    2.9289097333747233E-4    -0.00281340771822446     -0.01037559838667805     -0.010374317519092808    -0.012132944226702884    0.012131663359117646     -0.012131663359117646    0.012132944226702884     0.010374317519092808     0.01037559838667805
0.049976562306238925      -4.0034951570167907E-7   2.9611731751661536E-4    -0.0028344418628324652   -0.010450216197811418    -0.010448614799748611    -0.012226920102911114    0.012225318704848309     -0.012225318704848309    0.012226920102911114     0.010448614799748611     0.010450216197811418
0.05321093416034839       -4.374688801159836E-7    2.976118380529549E-4     -0.0028441853865656796   -0.010484780969864087    -0.010483031094343623    -0.012270451998181818    0.012268702122661356     -0.012268702122661356    0.012270451998181818     0.010483031094343623     0.010484780969864087
0.058305226564069335      -4.066817642403907E-7    2.9992887959182866E-4    -0.002859373718447       -0.010538521598540998    -0.010536894871484036    -0.01233809487609197     0.01233646814903501      -0.01233646814903501     0.01233809487609197      0.010536894871484036     0.010538521598540997
0.0633510099590795        -2.1473606097447136E-7   3.024339092629505E-4     -0.002874748595505205    -0.01059212212635392     -0.010591263182110022    -0.012406725581931625    0.012405866637687727     -0.012405866637687727    0.012406725581931625     0.010591263182110022     0.01059212212635392
0.06591196028807089       -1.1731542805284573E-7   3.0370531868705226E-4    -0.0028825520015133476   -0.010619326680848343    -0.010618857419136131    -0.012441558592970657    0.012441089331258447     -0.012441089331258447    0.012441558592970657     0.010618857419136131     0.010619326680848343
0.0709807204028261        3.203896804592335E-8     3.062680422339115E-4     -0.002897889425561629    -0.010672689497608693    -0.010672817653480875    -0.012510297751012162    0.012510425906884344     -0.012510425906884344    0.012510297751012162     0.010672817653480875     0.010672689497608693
0.07953165353135239       -1.1905906655927194E-7   3.1022328738245034E-4    -0.002924753653536674    -0.010768582870132465    -0.010768106633866226    -0.012629922594427169    0.012629446358160927     -0.012629446358160927    0.012629922594427169     0.010768106633866226     0.010768582870132465
0.08442806220087329       -2.0558035206907053E-7   3.1248812752846645E-4    -0.002940136564007366    -0.010823493034148205    -0.010822670712739924    -0.012698421799319005    0.012697599477910725     -0.012697599477910725    0.012698421799319005     0.010822670712739924     0.010823493034148205
0.09600525805096805       -4.6238563450369936E-7   3.1888218969445544E-4    -0.0029769763677767614   -0.010952183673292686    -0.010950334130754668    -0.012865476811459421    0.0128636272689214       -0.0128636272689214      0.012865476811459421     0.010950334130754668     0.010952183673292686
0.09837749477368596       -3.475664757615473E-7    3.201040350662703E-4     -0.0029845695250141167   -0.010978661127809179    -0.010977270861906129    -0.012899285338206803    0.012897895072303748     -0.012897895072303748    0.012899285338206803     0.010977270861906129     0.010978661127809179
0.10345487571090439       -1.0181502851266787E-7   3.22719193300552E-4      -0.003000821424093598    -0.01103533174652976     -0.011034924486415706    -0.012971646906333074    0.012971239646219015     -0.012971239646219015    0.012971646906333074     0.011034924486415706     0.01103533174652976
0.10932260950078754       -9.439117107848242E-8    3.2548888079854524E-4    -0.0030202825971714473   -0.011104852528632313    -0.011104474963947994    -0.013057785813423584    0.013057408248739265     -0.013057408248739265    0.013057785813423584     0.011104474963947994     0.011104852528632313
0.12859465842709117       -1.5695666548791054E-7   3.363152757327708E-4     -0.0030849802298658436   -0.011331289005596039    -0.011330661178934083    -0.013349180659992667    0.013348552833330706     -0.013348552833330706    0.013349180659992667     0.011330661178934083     0.011331289005596039
0.1294236754321978        -1.586773429509671E-7    3.367751361054431E-4     -0.0030877459267063226   -0.011340975653194864    -0.011340340943823057    -0.013361626469827526    0.013360991760455715     -0.013360991760455715    0.013361626469827526     0.011340340943823057     0.011340975653194864
0.13232680412915077       -1.6470297100254318E-7   3.383855178422142E-4     -0.003097431100611332    -0.011374897254860692    -0.011374238442976678    -0.01340521036191398     0.013404551550029961     -0.013404551550029961    0.01340521036191398      0.011374238442976678     0.011374897254860692
0.13482719779268737       -1.9991187905512425E-7   3.39782014288893E-4      -0.003105698863908234    -0.011403849236524368    -0.011403049589008143    -0.01344254132225773     0.0134417416747415       -0.0134417416747415      0.01344254132225773      0.011403049589008143     0.011403849236524368
0.13558097966552207       -2.3102356598543954E-7   3.402523592788374E-4     -0.0031082621730229173   -0.011412753661387127    -0.011411829567123182    -0.013454267817060155    0.013453343722796204     -0.013453343722796204    0.013454267817060155     0.011411829567123182     0.011412753661387127
0.13734640165549816       -2.1205781724738183E-7   3.413326525348537E-4     -0.0031143113870248876   -0.011433671706129484    -0.011432823474860491    -0.01348166762133861     0.013480819390069614     -0.013480819390069614    0.01348166762133861      0.011432823474860491     0.011433671706129484
0.13976614008512933       -2.418024169442137E-7    3.4275275103604465E-4    -0.003122738281721866    -0.011463178478613218    -0.011462211268945437    -0.01351969498482949     0.013518727775161703     -0.013518727775161703    0.01351969498482949      0.011462211268945437     0.01146317847861322
0.152567529896396         -1.7901866029078708E-7   3.5002637381990453E-4    -0.0031672816349409215   -0.011619405455624553    -0.011618689380983385    -0.013719563698543984    0.013718847623902814     -0.013718847623902814    0.013719563698543984     0.011618689380983385     0.011619405455624553
0.1624228031135615        -1.3068398065506668E-7   3.5562604236139754E-4    -0.0032015737643467574   -0.011739678298264142    -0.01173915556234152     -0.01387343455243253     0.013872911816509905     -0.013872911816509905    0.013873434552432534     0.01173915556234152      0.011739678298264142
0.16910667254145118       -1.7771527592427064E-7   3.5982743425348024E-4    -0.003225602708796255    -0.011823283962976423    -0.011822573101872721    -0.01398224856849731     0.013981537707393604     -0.013981537707393604    0.013982248568497311     0.011822573101872721     0.011823283962976423
0.16969941102680175       -1.54137670893192E-7     3.6019417409752414E-4    -0.0032277253660613946   -0.011830627217294788    -0.01183001066661121     -0.013991792261879936    0.013991175711196357     -0.013991175711196357    0.013991792261879937     0.01183001066661121      0.011830627217294788
0.1705076888787438        -1.0266529860247261E-7   3.6062147936488214E-4    -0.003230642171560483    -0.011840909578744487    -0.011840498917550072    -0.014004638454933781    0.014004227793739367     -0.014004227793739367    0.014004638454933785     0.011840498917550072     0.011840909578744487
0.17523338497554541       1.0944580474984935E-7    3.632356113797571E-4     -0.0032477398835367138   -0.011901033808398083    -0.011901471591617079    -0.014080447476676625    0.014080885259895618     -0.014080885259895618    0.014080447476676625     0.011901471591617079     0.011901033808398083
0.1810977677660559        2.7620854237430964E-8    3.671882458617919E-4     -0.0032696321676534273   -0.011976908691319857    -0.011977019174736807    -0.014180038166490608    0.014180148649907555     -0.014180148649907555    0.014180038166490608     0.011977019174736807     0.01197690869131986
0.18123608624832777       2.6808506028398944E-8    3.6727673575954144E-4    -0.0032701342290659425   -0.011978653091973086    -0.0119787603259972      -0.014182313506530335    0.014182420740554445     -0.014182420740554445    0.014182313506530334     0.0119787603259972       0.011978653091973088
0.1840916942765356        1.0037442398180859E-8    3.69103624388438E-4      -0.003280499370272548    -0.012014666533040078    -0.012014706682809672    -0.014229288279370707    0.014229328429140299     -0.014229328429140299    0.014229288279370703     0.012014706682809672     0.012014666533040081
0.1869986106749273        5.275664787533371E-8     3.7071770253984293E-4    -0.003291142969603408    -0.01205231325749835     -0.01205252428408985     -0.014276619472737409    0.014276830499328909     -0.014276830499328909    0.014276619472737406     0.01205252428408985      0.012052313257498351
0.1872827024945778        4.021632895625784E-8     3.7090977342686194E-4    -0.003292215852710583    -0.01205605365790383     -0.012056214523219658    -0.014281512298465002    0.014281673163780827     -0.014281673163780827    0.014281512298464999     0.012056214523219658     0.012056053657903833
0.19310674036570474       -2.1686707594640737E-7   3.7484733178850643E-4    -0.0033142105439169945   -0.012132733914454349    -0.012131866446150563    -0.014381817905185388    0.014380950436881602     -0.014380950436881602    0.014381817905185387     0.012131866446150563     0.012132733914454352
0.19635025551057406       -7.738644432911004E-8    3.768290826200954E-4     -0.003326212060333569    -0.012174515766362646    -0.012174206220585326    -0.014435490262083218    0.0144351807163059       -0.0144351807163059      0.014435490262083218     0.012174206220585326     0.012174515766362647
0.19678200999799755       -6.214379113473069E-8    3.7710390600775206E-4    -0.0033278267538636493   -0.012180119585013607    -0.012179871009849064    -0.01444274302106012     0.01444249444589558      -0.01444249444589558     0.01444274302106012      0.012179871009849064     0.012180119585013608
0.19830158847653045       -8.496617973538496E-9    3.780711587345803E-4     -0.003333509737154405    -0.012199842465649821    -0.012199808479177923    -0.014468269418057303    0.01446823543158541      -0.01446823543158541     0.014468269418057303     0.012199808479177923     0.012199842465649823
0.20054048911169153       6.09620857263582E-8      3.7948454366596926E-4    -0.0033422720615181364   -0.01223051269090318     -0.012230756539246082    -0.014507419952898996    0.014507663801241903     -0.014507663801241903    0.014507419952898996     0.012230756539246082     0.012230512690903183
0.2006817211844143        6.534360964845977E-8     3.795737013893091E-4     -0.0033428247976299242   -0.012232447399132469    -0.01223270877357106     -0.014509889607468324    0.01451015098190692      -0.01451015098190692     0.014509889607468324     0.01223270877357106      0.01223244739913247
0.20538799890680082       6.038527977512488E-8     3.8273271012742924E-4    -0.003360933921513351    -0.012295416785111563    -0.012295658326230658    -0.014591813045876138    0.01459205458699524      -0.01459205458699524     0.014591813045876138     0.012295658326230658     0.012295416785111564
0.21220570377177173       -1.371209031088226E-8    3.872552836110671E-4     -0.0033868310046204636   -0.012385585591829269    -0.01238553074346802     -0.014709117293495673    0.014709062445134431     -0.014709062445134431    0.014709117293495673     0.01238553074346802      0.01238558559182927
0.21353722978416267       -3.3883087534093195E-8   3.8813158142084707E-4    -0.0033921202725180153   -0.012404154111984584    -0.01240401857963444     -0.014732943600509668    0.01473280806815953      -0.01473280806815953     0.014732943600509668     0.01240401857963444      0.012404154111984587
0.21643562722826548       -7.779027842089195E-8    3.9003906149146075E-4    -0.003403633679250427    -0.012444573113084159    -0.01244426195197047     -0.014784807482032926    0.014784496320919242     -0.014784496320919242    0.014784807482032926     0.01244426195197047      0.01244457311308416
0.21725185007267167       -1.1012834558261682E-7   3.9059738656683845E-4    -0.003406779453725377    -0.01245554591189215     -0.012455105398509815    -0.014799130231293181    0.014798689717910853     -0.014798689717910853    0.014799130231293181     0.012455105398509815     0.01245554591189215
0.22579761707765034       8.532367325567992E-8     3.964320353571847E-4     -0.0034402568044025394   -0.012571560464192087    -0.012571901758885104    -0.014950152676335194    0.014950493971028218     -0.014950493971028218    0.014950152676335197     0.012571901758885104     0.01257156046419209
0.2311967113765372        8.560919001876618E-8     4.0018810938364624E-4    -0.0034618593565972763   -0.012646701879858124    -0.012647044316618193    -0.015047830536160003    0.015048172972920075     -0.015048172972920075    0.01504783053616         0.012647044316618193     0.012646701879858125
0.23291766938192215       3.711652944456626E-8     4.015006530199997E-4     -0.003468768632649273    -0.012670498338478199    -0.01267064680459597     -0.015079502256598196    0.015079650722715976     -0.015079650722715976    0.015079502256598196     0.01267064680459597      0.012670498338478199
0.23950201116368963       -1.7996134290472153E-7   4.060915415875347E-4     -0.003495154345157317    -0.012762702678552468    -0.012761982833180844    -0.01519925192807768     0.01519853208270606      -0.01519853208270606     0.015199251928077678     0.012761982833180844     0.012762702678552468
0.24396135733587454       1.097576064318275E-8     4.0904004884747766E-4    -0.0035132694657289886   -0.01282593576485223     -0.012825979667894793    -0.015280176057937097    0.015280219960979669     -0.015280219960979669    0.015280176057937096     0.012825979667894793     0.01282593576485223
0.2458123306181732        -2.5912581428968657E-8   4.1035826738264477E-4    -0.0035210312944467578   -0.012853102200801946    -0.012852998550476221    -0.015315251805097817    0.0153151481547721       -0.0153151481547721      0.015315251805097817     0.012852998550476221     0.012853102200801946
0.2501954536304707        -1.0247532086798994E-7   4.135999040504873E-4     -0.0035392910685200164   -0.012916569512570334    -0.012916159611286854    -0.01539816893687326     0.015397759035589789     -0.015397759035589789    0.015398168936873258     0.012916159611286854     0.012916569512570334
0.2564573525793099        -9.413236060441078E-8    4.183436166076837E-4     -0.003564917446704456    -0.013004827201715974    -0.013004450672273545    -0.015514888901362075    0.01551451237191966      -0.01551451237191966     0.015514888901362073     0.013004450672273545     0.013004827201715974
0.25646252530076197       -9.373344845963882E-8    4.1834734875525006E-4    -0.003564938899886388    -0.013004901020176714    -0.013004526086382865    -0.015514985112708213    0.015514610178914376     -0.015514610178914376    0.015514985112708211     0.013004526086382865     0.013004901020176714
0.2564749289083914        -9.3555184043557E-8      4.183569303472318E-4     -0.0035649919682713333   -0.013005084192411717    -0.013004709971675533    -0.01551522577449511     0.015514851553758936     -0.015514851553758936    0.015515225774495107     0.013004709971675533     0.013005084192411717
0.2564770431592207        -9.352479807031282E-8    4.1835856357277387E-4    -0.0035650010140167512   -0.013005115414944816    -0.013004741315752527    -0.01551526679638146     0.01551489269718918      -0.01551489269718918     0.015515266796381459     0.013004741315752527     0.013005115414944816
0.2640760211653397        1.5436909968538813E-8    4.2423848233591927E-4    -0.00359716169252363     -0.013115900449266821    -0.013115962196906684    -0.015661331343282334    0.015661393090922217     -0.015661393090922217    0.015661331343282334     0.013115962196906684     0.013115900449266821
0.2651845452695487        8.212966357165E-9        4.250498423791737E-4     -0.0036018681084562295   -0.013132306480754675    -0.013132339332620094    -0.015682605535029717    0.015682638386895154     -0.015682638386895154    0.015682605535029717     0.013132339332620094     0.013132306480754675
0.269728173390962         -2.1396595776399667E-8   4.283754518946765E-4     -0.0036211588065125262   -0.013199551663557619    -0.013199466077174505    -0.015769804374925676    0.01576971878854258      -0.01576971878854258     0.015769804374925676     0.013199466077174505     0.013199551663557619
0.2821090794868497        1.3815956585220448E-7    4.375068974906337E-4     -0.003674907522509672    -0.013386833078435079    -0.013387385716698477    -0.01601187446337888     0.016012427101642298     -0.016012427101642298    0.01601187446337888      0.013387385716698477     0.013386833078435079
0.282360654097888         1.2852777714901383E-7    4.3772023119197415E-4    -0.0036759879438125064   -0.013390534026119802    -0.013391048137228388    -0.016016855413271646    0.016017369524380248     -0.016017369524380248    0.016016855413271646     0.013391048137228388     0.013390534026119802
0.2852095004870152        1.9456808680949167E-8    4.4013603516454027E-4    -0.003688222701185732    -0.01343244378563194     -0.013432521612866654    -0.016073259996619182    0.016073337823853916     -0.016073337823853916    0.016073259996619182     0.013432521612866654     0.01343244378563194
0.2868453697818376        -2.459391070176667E-8    4.415906437707972E-4     -0.0036952033816478355   -0.013456090783100349    -0.013455992407457533    -0.016105634645725134    0.016105536270082335     -0.016105536270082335    0.016105634645725134     0.013455992407457533     0.013456090783100349
0.2874296792436368        3.1738462697939926E-9    4.421071635888314E-4     -0.0036978209824558143   -0.013464956091364218    -0.013464968786749288    -0.01611759907289721     0.016117611768282296     -0.016117611768282296    0.01611759907289721      0.013464968786749288     0.013464956091364218
0.29439436651302664       9.895242966223698E-8     4.4754066296631966E-4    -0.003728946648522648    -0.013572966700332308    -0.013573362510050946    -0.016258210678130228    0.01625860648784888      -0.01625860648784888     0.016258210678130228     0.013573362510050946     0.013572966700332308
0.29920886704818517       1.6516158208553455E-7    4.5129669459399545E-4    -0.003750462982298975    -0.013647631522249744    -0.013648292168578078    -0.016355411689813717    0.01635607233614206      -0.01635607233614206     0.016355411689813717     0.013648292168578078     0.013647631522249744
0.3039625661727132        -1.2727827952633538E-8   4.555303436442682E-4     -0.003771485958739908    -0.013719378259682734    -0.013719327348370912    -0.01645256032154834     0.016452509410236536     -0.016452509410236536    0.01645256032154834      0.013719327348370912     0.013719378259682734
0.3106608969944811        2.3530537468487136E-7    4.6146096660834324E-4    -0.003802532752398914    -0.013825277499021255    -0.013826218720519987    -0.016594043298671316    0.01659498452017006      -0.01659498452017006     0.016594043298671316     0.013826218720519987     0.013825277499021255
0.3130604562713375        2.431250307139698E-7     4.6333635335210393E-4    -0.0038136289238479516   -0.013864020385274069    -0.013864992885396915    -0.01664403850538669     0.01664501100550955      -0.01664501100550955     0.01664403850538669      0.013864992885396915     0.013864020385274069
0.3163086546095204        2.5371022190463746E-7    4.658749979120807E-4     -0.0038286494178230678   -0.01391646525711222     -0.013917480097999832    -0.016711715244584705    0.016712730085472326     -0.016712730085472326    0.016711715244584705     0.013917480097999832     0.01391646525711222
0.32107976256358883       2.510496659626926E-8     4.70130854041325E-4      -0.003850489789291032    -0.013991516385106961    -0.013991616804973336    -0.01681230150935491     0.016812401929221298     -0.016812401929221298    0.01681230150935491      0.013991616804973336     0.013991516385106961
0.33152179866060427       3.021934292001539E-7     4.793907790636996E-4     -0.0039005091234728135   -0.014163259769841754    -0.014164468543558545    -0.01703960444422395     0.017040813217940758     -0.017040813217940758    0.01703960444422395      0.014164468543558545     0.014163259769841754
0.3320595401990394        3.164628661929804E-7     4.798676445218401E-4     -0.0039030850074732613   -0.014172104170595137    -0.014173370022059904    -0.017051310037726176    0.017052575889190954     -0.017052575889190954    0.017051310037726176     0.014173370022059904     0.014172104170595137
0.3340641556512376        3.1582689901567166E-7    4.816435994931832E-4     -0.003912583177779238    -0.014204770258839369    -0.014206033566435426    -0.01709463185579847     0.017095895163394534     -0.017095895163394534    0.01709463185579847      0.014206033566435426     0.014204770258839369
0.33843354733242115       -6.66301624444139E-9     4.85529338635655E-4      -0.003933255471647369    -0.014276447196714994    -0.01427642054465001     -0.01718962322852893     0.01718959657646395      -0.01718959657646395     0.01718962322852893      0.01427642054465001      0.014276447196714994
0.3395895597246592        -9.415391089214145E-8    4.865446130838736E-4     -0.003938717628049667    -0.01429542498076883     -0.014295048365125254    -0.017214692659272078    0.01721431604362851      -0.01721431604362851     0.017214692659272078     0.014295048365125254     0.01429542498076883
0.341216351475772         -2.0392004724284228E-7   4.8807113897044894E-4    -0.003946754673411192    -0.014323213116827901    -0.014322397436638924    -0.0172516399506506      0.01725082427046163      -0.01725082427046163     0.0172516399506506       0.014322397436638924     0.014323213116827901
0.34482173745370837       -4.4693423713224335E-7   4.914461582726647E-4     -0.003964536898246394    -0.014384702986641847    -0.01438291524969331     -0.01733337993627784     0.01733159219932931      -0.01733159219932931     0.01733337993627784      0.01438291524969331      0.014384702986641847
0.34525192174571795       -4.521470675858275E-7    4.918656604838822E-4     -0.0039666462189393075   -0.014391892188440754    -0.014390083600170404    -0.01734308615134405     0.017341277563073704     -0.017341277563073704    0.01734308615134405      0.014390083600170404     0.014391892188440754
0.3463539096981032        -4.1987890987858115E-7   4.928658314416246E-4     -0.003972026128195753    -0.014410346776277894    -0.014408667260638374    -0.017367541764927646    0.017365862249288128     -0.017365862249288128    0.017367541764927646     0.014408667260638374     0.014410346776277894
0.3569589574187291        -1.0934434223526433E-7   5.024910371552504E-4     -0.0040238000103636675   -0.014587945618673388    -0.014587508241304442    -0.017602891841604892    0.017602454464235952     -0.017602454464235952    0.017602891841604892     0.014587508241304442     0.014587945618673388
0.3602604954324944        -4.6410630112510276E-7   5.055431743958849E-4     -0.004040565733507705    -0.014646561623445416    -0.01464470519824091     -0.01767982066982073     0.017677964244616227     -0.017677964244616227    0.01767982066982073      0.01464470519824091      0.014646561623445416
0.36541440499773303       -2.7782625393096497E-7   5.109354301797739E-4     -0.004066605974152852    -0.01473417325857995     -0.01473306195356422     -0.017799785839658595    0.017798674534642872     -0.017798674534642872    0.017799785839658595     0.01473306195356422      0.01473417325857995
0.36659949685173343       -2.3499295161974756E-7   5.121753274506288E-4     -0.004072593676628835    -0.014754318710066694    -0.014753378738260207    -0.017827370674770467    0.01782643070296399      -0.01782643070296399     0.017827370674770467     0.014753378738260207     0.014754318710066694
0.3734441960816106        -1.3366085536338314E-7   5.183914761052532E-4     -0.004107241924869373    -0.014874060592872461    -0.014873525949450999    -0.01798440944950398     0.01798387480608253      -0.01798387480608253     0.01798440944950398      0.014873525949450999     0.014874060592872461
0.3755268385317154        -3.8759922075245455E-7   5.203179680072326E-4     -0.004118192890697303    -0.014912592857209016    -0.014911042460325999    -0.018034500665252414    0.018032950268369406     -0.018032950268369406    0.018034500665252414     0.014911042460325999     0.014912592857209016
0.385979262373612         -1.6113556259643366E-7   5.312596632229354E-4     -0.004172885969530081    -0.015098087159576714    -0.015097442617326321    -0.018285645138914328    0.018285000596663943     -0.018285000596663943    0.018285645138914328     0.015097442617326321     0.015098087159576714
0.38794707195774825       -1.18500728445175E-7     5.333195847337579E-4     -0.004183182678345281    -0.01513300896063674     -0.015132534957722953    -0.01833292646903929     0.018332452466125512     -0.018332452466125512    0.01833292646903929      0.015132534957722953     0.01513300896063674
0.3899294347444915        -1.1785218660044064E-7   5.351210239853977E-4     -0.004193574437285969    -0.015169170381560886    -0.015168698972814474    -0.01837989652547327     0.01837942511672687      -0.01837942511672687     0.01837989652547327      0.015168698972814474     0.015169170381560886
0.39079318163093557       -2.3567430797838933E-7   5.359204964691101E-4     -0.004198271716801823    -0.01518579672641592     -0.015184854029183998    -0.01840131970523058     0.01840037700799867      -0.01840037700799867     0.01840131970523058      0.015184854029183998     0.01518579672641592
0.39665042660469574       -1.9356756320858198E-7   5.420552168702735E-4     -0.004229974791477179    -0.015294120650424318    -0.015293346380171473    -0.018546451951645955    0.01854567768139313      -0.01854567768139313     0.018546451951645955     0.015293346380171473     0.015294120650424318