% Model:              Cylinder_potential.mph
% Version:            COMSOL 6.2.0.339
% Date:               Apr 30 2024, 08:07
% Dimension:          1
% Nodes:              443
% Expressions:        11
% Description:        Line graph
% Arc length (m)          Magnetic scalar potential Magnetic scalar potential Magnetic scalar potential Magnetic scalar potential Magnetic scalar potential Magnetic scalar potential Magnetic scalar potential Magnetic scalar potential Magnetic scalar potential Magnetic scalar potential Magnetic scalar potential
0                         8.56282091494208E-6      -1.1742417937593249E-5   1.5356620163466133E-6    -1.1958963917485608E-5   -4.6210247577246633E-5   5.849554370803838E-5     -2.4244260048270224E-5   2.4244260048270224E-5    -5.849554370803117E-5    4.6210247577246633E-5    1.1958963917485391E-5
8.796943256392312E-4      -2.8003593199238505E-4   -1.6631599902007697E-4   -6.47147564287614E-5     -0.0013178788867600226   -1.9773515879047522E-4   -3.199828926395967E-4    -8.001608353299436E-4    8.001608353299436E-4     3.1998289263960363E-4    1.9773515879047522E-4    0.0013178788867600226
0.0032622612109186183     -0.001061677704332198    -5.849635734017368E-4    -2.441475986362156E-4    -0.004854836523414444    -6.081257060856437E-4    -0.0013450550830040606   -0.002901655734324732    0.002901655734324732     0.001345055083004065     6.081257060856437E-4     0.004854836523414443
0.006473481259411527      -0.0021194419361095437   -0.0011499801765227848   -4.895280381758238E-4    -0.009646936554490709    -0.001169168810052534    -0.002747055495354039    -0.005730712249084136    0.005730712249084136     0.002747055495354044     0.001169168810052534     0.009646936554490705
0.015206690400211612      -0.004992831479356299    -0.002685924656651982    -0.001144266801394097    -0.0226205041342449      -0.0026491782168197166   -0.0065049561943330515   -0.013466369723092151    0.013466369723092151     0.006504956194333055     0.0026491782168197166    0.02262050413424489
0.01799091642125627       -0.005909186310004418    -0.0031717221303890564   -0.0013534670966818788   -0.026747407397903485    -0.00311066215788583     -0.007717074615569192    -0.015919670624448486    0.015919670624448486     0.007717074615569197     0.00311066215788583      0.02674740739790347
0.021795310676876307      -0.007161302706976871    -0.003835520652675194    -0.0016393204705283865   -0.03238644925409283     -0.003741238426185372    -0.009373325338041714    -0.019271885489865772    0.019271885489865772     0.009373325338041721     0.003741238426185372     0.032386449254092814
0.0259259214621557        -0.008515633892694127    -0.004558321556489198    -0.0019441357031519013   -0.03848277526746341     -0.004420239696686938    -0.011132845928528267    -0.022929689642248233    0.022929689642248233     0.011132845928528272     0.004420239696686938     0.038482775267463395
0.025929477884024773      -0.00851679913913148     -0.004558943569288071    -0.0019443997761592966   -0.03848802809076432     -0.00442083153423843     -0.011134366675035938    -0.02293282988148998     0.02293282988148998      0.011134366675035944     0.00442083153423843      0.038488028090764306
0.025931435873898935      -0.00851743992677043     -0.004559285868471978    -0.0019445423376638052   -0.03849090680961197     -0.004421147102530288    -0.011135191598780148    -0.022934568108301565    0.022934568108301565     0.011135191598780153     0.004421147102530288     0.03849090680961196
0.027005168772844354      -0.008868532767093701    -0.004746807697552158    -0.0020243422940784497   -0.04007485780315763     -0.004600726734782858    -0.011594011617844733    -0.023880119450530077    0.023880119450530077     0.01159401161784474      0.004600726734782858     0.040074857803157615
0.029741618074607862      -0.009763306279855027    -0.005224714240935402    -0.002227715530780135    -0.04411161740563676     -0.0050583922862166815   -0.0127633319600244      -0.02628989315939572     0.02628989315939572      0.012763331960024405     0.0050583922862166815    0.04411161740563674
0.0368764965558669        -0.01210735636722609     -0.006475066678375526    -0.0027556660867733922   -0.054662577116672294    -0.00623315164776796     -0.01581217704641918     -0.03261724842248521     0.03261724842248521      0.015812177046419185     0.00623315164776796      0.05466257711667229
0.04156376323719612       -0.013646325816905832    -0.007296029421100745    -0.0031020536411222243   -0.061588954461602764    -0.007003651193979462    -0.017812777934998334    -0.03677252533262503     0.03677252533262503      0.017812777934998338     0.007003651193979462     0.06158895446160275
0.04375577569362644       -0.014363223986736735    -0.007679069625919712    -0.0032636285571348567   -0.064818171079772       -0.007365275132825085    -0.018743753324253775    -0.03870914262269321     0.03870914262269321      0.01874375332425378      0.007365275132825085     0.06481817107977199
0.046821892094431064      -0.01537053740922602     -0.008216602366128737    -0.0034846495858781123   -0.06932948026035066     -0.007847330623446615    -0.020029866063578292    -0.04145228357332583     0.04145228357332583      0.020029866063578292     0.007847330623446615     0.06932948026035066
0.05213295228411495       -0.0171236190657968      -0.009150893273453517    -0.0038657745713104336   -0.07716301623719586     -0.008668539974008689    -0.022257656596474794    -0.04623681966671247     0.04623681966671247      0.022257656596474794     0.008668539974008689     0.07716301623719585
0.05261031304562738       -0.017280740515560854    -0.009234804532818455    -0.0039011138925387377   -0.077870350199732       -0.008747388137488609    -0.0224615230028213      -0.04666143905942217     0.04666143905942217      0.0224615230028213       0.008747388137488609     0.07787035019973199
0.05719766394674089       -0.01879064933562341     -0.01004117661510217     -0.0042407184016478895   -0.08466770212314487     -0.009505104780651254    -0.02442064243253186     -0.05074195490996181     0.05074195490996181      0.024420642432531857     0.009505104780651254     0.08466770212314485
0.0678447006522048        -0.02228765286590927     -0.01190661440719738     -0.00500510063984808     -0.10031555151280298     -0.011164940049165923    -0.02887586506961874     -0.060274746394018384    0.060274746394018384     0.028875865069618735     0.011164940049165923     0.10031555151280297
0.06915934099943609       -0.022720669500155787    -0.01213737299925461     -0.005097333891804347    -0.10224279356529278     -0.011360115564669648    -0.029418555569765147    -0.06146412243085804     0.06146412243085804      0.029418555569765147     0.011360115564669648     0.10224279356529277
0.07036421026915671       -0.02311752970376985     -0.012348863493121854    -0.0051818657648466954   -0.10400911294629203     -0.011538994131212645    -0.029915931987560936    -0.0625541868275185      0.0625541868275185       0.029915931987560936     0.011538994131212645     0.104009112946292
0.0747457494394106        -0.024564366135924796    -0.013117806875742509    -0.005496353304546823    -0.11046756611726441     -0.012210101573565226    -0.031760724862809384    -0.06649673968088984     0.06649673968088984      0.031760724862809384     0.012210101573565226     0.11046756611726438
0.07562600835040093       -0.02485563702502097     -0.013272024167683414    -0.005559490647006002    -0.11176530914111618     -0.012342761041032302    -0.032133164135015733    -0.06728938396506817     0.06728938396506817      0.032133164135015733     0.012342761041032302     0.11176530914111615
0.07606268532981911       -0.024999656694647078    -0.013348858835808023    -0.00558916096841967     -0.11240253377039688     -0.0124039069918086      -0.03230938075554878     -0.06768924602303954     0.06768924602303954      0.03230938075554878      0.0124039069918086       0.11240253377039686
0.07624334684664463       -0.025059240353034626    -0.013380646789701706    -0.005601436140970409    -0.112666165639056       -0.012429204226917496    -0.032382284900845805    -0.06785467651129273     0.06785467651129273      0.032382284900845805     0.012429204226917496     0.11266616563905597
0.08668566867558783       -0.028484563324612192    -0.0152023764413791      -0.006316638720350752    -0.12784281085476468     -0.013904557556315906    -0.03662855220649013     -0.07730970109195866     0.07730970109195866      0.03662855220649013      0.013904557556315906     0.12784281085476468
0.09355146176159014       -0.0307424118564382      -0.016399926823583672    -0.006797984397240663    -0.13787654177259007     -0.014906894346837264    -0.03947698083108807     -0.08349266659466471     0.08349266659466471      0.03947698083108807      0.01490689434683726      0.13787654177259007
0.09409088643876896       -0.03092018928485265     -0.016495100526932104    -0.006836077004133232    -0.13866998816703452     -0.01498923102762393     -0.039699385005441956    -0.08398137213396864     0.08398137213396864      0.039699385005441956     0.014989231027623924     0.13866998816703452
0.1046830200203818        -0.034415660597938776    -0.01836274411046188     -0.007520917105075842    -0.15400322194756658     -0.016340579555811433    -0.04382675728479533     -0.09383588510695981     0.09383588510695981      0.04382675728479533      0.016340579555811433     0.15400322194756658
0.10932839576286489       -0.03595059231914097     -0.019179220846207424    -0.0078096118315216755   -0.16067729450299092     -0.016874925226427015    -0.04560196942574641     -0.0982003998508175      0.0982003998508175       0.045601969425746416     0.016874925226427015     0.16067729450299092
0.11022193685985812       -0.036243451552131024    -0.019335005994801754    -0.007866415380735998    -0.1619575826116113      -0.016983776403087177    -0.045947546642800825    -0.09902625956572329     0.09902625956572329      0.04594754664280084      0.016983776403087177     0.1619575826116113
0.11385800074328915       -0.03744062776161816     -0.01997512320634355     -0.008103099219407054    -0.1672190220198952      -0.017456510973422518    -0.047368282781833915    -0.10239422826463876     0.10239422826463876      0.04736828278183393      0.017456510973422518     0.16721902201989522
0.11477787662290634       -0.03774390013096601     -0.020136961397110076    -0.008157493190205024    -0.16852865721408236     -0.017553056690218276    -0.047706888831421906    -0.10326871169244214     0.10326871169244214      0.04770688883142193      0.017553056690218276     0.1685286572140824
0.11965208032458302       -0.0393508683514032      -0.020994503513373772    -0.008445713916160667    -0.17546810290757042     -0.018064629501957565    -0.04950108182732778     -0.10790239157828503     0.10790239157828503      0.04950108182732779      0.018064629501957565     0.17546810290757042
0.12514365171620379       -0.04116794470837306     -0.021961379484475563    -0.008783647291625455    -0.18335461703667466     -0.018682838203182398    -0.05158634012982126     -0.11308543870367097     0.11308543870367097      0.05158634012982127      0.018682838203182398     0.18335461703667466
0.12856134115660545       -0.04230306102195888     -0.02256438439285951     -0.00899493145383635     -0.18827900103784173     -0.019066756950006154    -0.052892694680684665    -0.11631954940715088     0.11631954940715088      0.05289269468068468      0.019066756950006154     0.18827900103784173
0.13340457758722946       -0.04391642142094965     -0.023420980904551345    -0.009283812389809791    -0.1952310351147925      -0.019565349430993896    -0.054705149687484446    -0.12096053599631415     0.12096053599631415      0.05470514968748446      0.01956534943099389      0.1952310351147925
0.139057147247508         -0.04579207005889126     -0.024422931725537975    -0.009594240535892303    -0.2032298974379657      -0.020061617202400617    -0.05669230708473781     -0.12647597315082726     0.12647597315082726      0.056692307084737825     0.020061617202400617     0.2032298974379657
0.14072667775591022       -0.04634769636905664     -0.024720630519704002    -0.009688457747527232    -0.20561111528733422     -0.020220329811107628    -0.05728733216911023     -0.12810345330711637     0.12810345330711637      0.05728733216911024      0.020220329811107628     0.20561111528733422
0.14388505206006655       -0.04739881574178317     -0.025283809339821592    -0.009866695412990319    -0.21011584115499243     -0.020520578187859698    -0.05841298511606287     -0.13118227785106984     0.13118227785106984      0.05841298511606288      0.020520578187859698     0.21011584115499243
0.14808795145487982       -0.04878909100274924     -0.026025970085947283    -0.010105329191980036    -0.21607740903126052     -0.02092104502026349     -0.059921588515576815    -0.13523477549542018     0.13523477549542018      0.059921588515576815     0.02092104502026349      0.21607740903126052
0.15760422611307942       -0.051948446740046283    -0.027714261525432635    -0.010602704919680777    -0.2294504977351136      -0.021656710774928433    -0.06316492858251781     -0.14462885837766737     0.14462885837766737      0.06316492858251781      0.021656710774928433     0.2294504977351136
0.15829464917460537       -0.052178152564570084    -0.027836326906236063    -0.010639339634418491    -0.23042264438552237     -0.02171003412724197     -0.063404682948106       -0.1453079273101744      0.1453079273101744       0.063404682948106        0.02171003412724197      0.23042264438552237
0.1586430689973768        -0.05229407288521126     -0.027897926816082733    -0.010657827227790568    -0.23091323512983306     -0.021736943588987936    -0.06352567423333665     -0.14565061730750845     0.14565061730750845      0.06352567423333665      0.021736943588987936     0.23091323512983306
0.15879692896954023       -0.05234546982061249     -0.02792528883879916     -0.010665966756635396    -0.2311306731841641      -0.021748793901714077    -0.06357894015136914     -0.1458029391310809      0.1458029391310809       0.06357894015136914      0.021748793901714077     0.2311306731841641
0.15913392862506137       -0.05245786784901513     -0.027985356846285656    -0.010683461498397521    -0.23160565223047735     -0.021774180834416797    -0.06369351115276342     -0.14613796024329712     0.14613796024329712      0.06369351115276342      0.021774180834416797     0.23160565223047735
0.1600097548634386        -0.05275027846052048     -0.028141100157269717    -0.010726143263915647    -0.23282843044851276     -0.02182731660643076     -0.06398182950489446     -0.14701928433718753     0.14701928433718753      0.06398182950489446      0.02182731660643076      0.23282843044851276
0.1600324825920747        -0.05275786503435556     -0.02814514460124908     -0.010727250216937132    -0.23286016474020693     -0.021828704602784653    -0.06398929713271247     -0.14704216300470982     0.14704216300470982      0.06398929713271247      0.021828704602784653     0.23286016474020693
0.16006478839687954       -0.052768630155999266    -0.028150878130246       -0.010728861353537227    -0.2329053401168855      -0.021830819492888377    -0.0640000713354095      -0.14707444928858762     0.14707444928858762      0.0640000713354095       0.021830819492888377     0.2329053401168855
0.1718398539813643        -0.05669238361595224     -0.030240678411561084    -0.011316100682390712    -0.24937120519615058     -0.02260167073234161     -0.0679271347267841      -0.15884239973702485     0.15884239973702485      0.06792713472678412      0.02260167073234161      0.24937120519615058
0.17639182919383123       -0.05821077806567239     -0.031046640469313155    -0.011528638492400723    -0.2556760315088871      -0.022832919246197556    -0.06939618869300826     -0.16344692356968132     0.16344692356968132      0.06939618869300827      0.022832919246197552     0.2556760315088871
0.1782899528478167        -0.05884293643985668     -0.03138348910175035     -0.01161538727002949     -0.2582978892650824      -0.022926143505655645    -0.0699969546545803      -0.16537479110484643     0.16537479110484643      0.06999695465458032      0.022926143505655645     0.2582978892650824
0.18194045192229438       -0.0600636574387982      -0.03203641381237188     -0.011783698415826835    -0.26337134997801936     -0.023116720222826563    -0.07115286710378813     -0.16910176265140467     0.16910176265140467      0.07115286710378815      0.023116720222826563     0.26337134997801936
0.18454577933766725       -0.06093487472174426     -0.03250240013754304     -0.011903820523383147    -0.26699223194965016     -0.023252733062673163    -0.07197783112439202     -0.17176166776258506     0.17176166776258506      0.07197783112439204      0.023252733062673163     0.26699223194965016
0.1875862855399174        -0.061952656904819825    -0.03304494787976061     -0.01203433804757453     -0.2711775096392196      -0.02336688201994029     -0.07290782236065595     -0.17490280525862334     0.17490280525862334      0.07290782236065597      0.02336688201994029      0.2711775096392196
0.19206079511982466       -0.0634504588580144      -0.03384337909766536     -0.012226411956816327    -0.27733670283629014     -0.02353486740423262     -0.07427642825029801     -0.17952540718175955     0.17952540718175955      0.07427642825029801      0.02353486740423262      0.27733670283629014
0.19398672941812214       -0.06409744146178219     -0.03418631244036309     -0.012308008518336595    -0.27998585431800005     -0.02359608847087126     -0.0748679796758215      -0.18152178617130726     0.18152178617130726      0.07486797967582151      0.02359608847087126      0.27998585431800005
0.19465638765669369       -0.06432100694796822     -0.03430497279848854     -0.012336952831709788    -0.28090474361824125     -0.023620715826368332    -0.07507490682730997     -0.18220912096456293     0.18220912096456293      0.07507490682731         0.02362071582636833      0.28090474361824125
0.19634357958287615       -0.06488427618224318     -0.034603935443395635    -0.012409877510328406    -0.28321986873598687     -0.023682764007014172    -0.0755962560756131      -0.18394084865335963     0.18394084865335963      0.0755962560756131       0.023682764007014172     0.28321986873598687
0.197429568809375         -0.06525030607404651     -0.034799046040492665    -0.012450765081689658    -0.2847008105963296      -0.023699586300143585    -0.07590653435337368     -0.18509468994281242     0.18509468994281242      0.07590653435337368      0.023699586300143582     0.2847008105963296
0.19866978270553667       -0.0656683169963911      -0.035021864893482815    -0.012497459222796386    -0.28639206556441615     -0.023718797578851814    -0.07626087620351926     -0.18641239178204508     0.18641239178204508      0.07626087620351928      0.023718797578851814     0.28639206556441615
0.19868071022777514       -0.06567199499138261     -0.03502382744509939     -0.012497905013879774    -0.28640709237358253     -0.02371911240805204     -0.07626412770298617     -0.1864238522625443      0.1864238522625443       0.07626412770298617      0.02371911240805204      0.28640709237358253
0.20802570581728472       -0.06881528494328652     -0.036699030194574725    -0.012861685028057172    -0.299174400582526       -0.023913260809379822    -0.07898021941507757     -0.19628092035806854     0.19628092035806854      0.0789802194150776       0.023913260809379822     0.299174400582526
0.20974138018641494       -0.069396957865233       -0.037011279708556416    -0.012924399744738605    -0.3015253538350897      -0.023937522374157687    -0.07945767558375119     -0.19813015587718086     0.19813015587718086      0.07945767558375119      0.023937522374157683     0.3015253538350897
0.21041971817964455       -0.06962693789506186     -0.03713473594973617     -0.012949195694264396    -0.30245486641638986     -0.02394711483614239     -0.0796464507179728      -0.19886130086227466     0.19886130086227466      0.0796464507179728       0.02394711483614239      0.30245486641638986
0.2168676157797472        -0.0717933567889121      -0.0382925943981055      -0.013179369983666       -0.31118197670680475     -0.024008549551156284    -0.08142641031817174     -0.2057470168374767      0.2057470168374767       0.08142641031817174      0.024008549551156284     0.31118197670680475
0.21969780153427543       -0.0727461016001646      -0.0388007991495361      -0.013275115914973183    -0.3149950643088303      -0.0240106579081718      -0.08219026941161368     -0.20879413698904478     0.20879413698904478      0.08219026941161368      0.024010657908171796     0.3149950643088303
0.223802290914228         -0.07413452094701017     -0.03954355315745059     -0.013399958839401881    -0.3204995367239797      -0.02396145293593892     -0.08323821777927617     -0.21329986600876458     0.21329986600876458      0.08323821777927617      0.023961452935938918     0.3204995367239797
0.22839143052824434       -0.07569435842257716     -0.04037193826828153     -0.013547463628151731    -0.3266943861626059      -0.023916952472297182    -0.0844627565529167      -0.21831467713739194     0.21831467713739194      0.0844627565529167       0.02391695247229718      0.3266943861626059
0.2284272969864377        -0.07570654934512722     -0.04037841251889157     -0.013548616453034823    -0.32674280205906847     -0.023916604678559543    -0.08447232694571907     -0.21835387043478988     0.21835387043478988      0.08447232694571907      0.023916604678559543     0.32674280205906847
0.23329613187350587       -0.07735624625312015     -0.04125648664356909     -0.013685512541167216    -0.3332240026016165      -0.023799017589135767    -0.08568508274020199     -0.22373990227227877     0.22373990227227877      0.08568508274020199      0.023799017589135763     0.3332240026016165
0.23633910206666797       -0.07839571301194553     -0.041811588709163294    -0.01376685993032573     -0.3372936318726839      -0.023710779824901714    -0.08642409961770417     -0.22715875243007805     0.22715875243007805      0.08642409961770417      0.023710779824901714     0.3372936318726839
0.23642102203482795       -0.07842369655380793     -0.0418265326424431      -0.01376904988786943     -0.3374031905864229      -0.023708404371191146    -0.08644399473176434     -0.22725079148346744     0.22725079148346744      0.08644399473176434      0.023708404371191143     0.3374031905864229
0.243400010438799         -0.08079919444048607     -0.04309397373114657     -0.013964912552448675    -0.34673996028420656     -0.02354318252226219     -0.08817611789732724     -0.2350206598646171      0.2350206598646171       0.08817611789732724      0.023543182522262198     0.34673996028420656
0.2451357609671859        -0.08138972007192019     -0.043407878555301614    -0.014007788322895605    -0.34903422910132764     -0.023475348813646806    -0.08858695776951805     -0.2369719225181628      0.2369719225181628       0.08858695776951805      0.023475348813646813     0.34903422910132764
0.2468944622127364        -0.08198617251830007     -0.043725645420311085    -0.014044151645078367    -0.3513258878778469      -0.02338119780464651     -0.08897201535598045     -0.23897267471721995     0.23897267471721995      0.08897201535598045      0.023381197804646515     0.3513258878778469
0.2501779309487509        -0.08310882968885767     -0.0443257255208646      -0.014107497375358179    -0.3556248254417419      -0.023189506686311083    -0.08967047231655437     -0.2427648464388764      0.2427648464388764       0.08967047231655437      0.02318950668631109      0.3556248254417419
0.2522701797219555        -0.08382680088231165     -0.044706951026219785    -0.01414966012653137     -0.3583730953494081      -0.023065891820161468    -0.0901313891920895      -0.24517581433715713     0.24517581433715713      0.0901313891920895       0.023065891820161475     0.3583730953494081
0.25268847417740975       -0.08397038527577022     -0.04478357730739498     -0.014158895445611953    -0.3589270842561732      -0.02304554315309228     -0.09022562041180338     -0.2456559206912776      0.2456559206912776       0.09022562041180338      0.02304554315309229      0.3589270842561732
0.26007457382955884       -0.08650574911994721     -0.04613661783029425     -0.014321969534113833    -0.3687092298672325      -0.022686233387443612    -0.09188952288546706     -0.2541334735943218      0.2541334735943218       0.09188952288546706      0.022686233387443615     0.3687092298672324
0.2654526621265654        -0.08834465687454593     -0.047120043559125135    -0.014402528490480744    -0.3756595583883902      -0.0222809308902065      -0.09293929703363946     -0.26043933046454426     0.26043933046454426      0.09293929703363946      0.0222809308902065       0.37565955838839016
0.2658138859406035        -0.08846928840128135     -0.04718639254183988     -0.014409184864512696    -0.3761344938861332      -0.022257340281007686    -0.09301613863509389     -0.26086101497003156     0.26086101497003156      0.09301613863509389      0.022257340281007686     0.3761344938861331
0.268013310521338         -0.08922814657392517     -0.047590379150192756    -0.01444971428725694     -0.37902628774745634     -0.02211370145175569     -0.09348401284629984     -0.2634285734494008      0.2634285734494008       0.09348401284629984      0.022113701451755688     0.3790262877474563
0.2731937532591315        -0.09102719098162647     -0.04854760579420372     -0.01454747837577267     -0.3858871128489548      -0.02177834892244887     -0.09460147808373252     -0.2695072858427734      0.2695072858427734       0.09460147808373252      0.02177834892244887      0.3858871128489548
0.2788623234171214        -0.08856647888212366     -0.04718485092708618     -0.014612729517898061    -0.3771384286170981      -0.022872513088603448    -0.09402932305458103     -0.2602365924739136      0.2602365924739136       0.09402932305458103      0.022872513088603448     0.3771384286170981
0.2805476694443323        -0.08781127492969615     -0.04680083374126552     -0.014633114251137861    -0.37455750808774035     -0.023312408368955685    -0.09375250564014723     -0.2574925940786374      0.2574925940786374       0.09375250564014723      0.023312408368955685     0.37455750808774035
0.2853482094574734        -0.08565949172598737     -0.045707822478419285    -0.014701811132884098    -0.367249695418769       -0.024611728514819506    -0.09300276054825328     -0.2496352063556962      0.2496352063556962       0.09300276054825328      0.024611728514819506     0.367249695418769
0.2886836096022686        -0.08429657166856468     -0.04500298721466079     -0.014741640523836953    -0.3625686670764595      -0.025382380402200803    -0.0925507437884948      -0.24463554288576392     0.24463554288576392      0.0925507437884948       0.025382380402200803     0.3625686670764595
0.2901923114496894        -0.08367501561200372     -0.04468351708486271     -0.014760605215381271    -0.3604430033401206      -0.025742940892105763    -0.0923419008309444      -0.2423581616170705      0.2423581616170705       0.0923419008309444       0.025742940892105763     0.3604430033401206
0.2939643330115987        -0.08212486987402248     -0.0438378619277106      -0.014790209744263838    -0.35492416450823205     -0.026424685012142103    -0.09189699294196857     -0.23660248655412142     0.23660248655412142      0.09189699294196857      0.026424685012142103     0.35492416450823205
0.2958158471739728        -0.08135859754736852     -0.043407600574312345    -0.014805183560531699    -0.35216073105980084     -0.026726340870326683    -0.09171512761392689     -0.23371926257554732     0.23371926257554732      0.09171512761392689      0.026726340870326683     0.35216073105980084
0.29661707868531767       -0.08106033449214697     -0.043236712550136204    -0.014811765225772187    -0.35107786753779124     -0.02683652956920332     -0.09165759223697416     -0.23258374573161383     0.23258374573161383      0.09165759223697416      0.02683652956920332      0.35107786753779124
0.3011156360003554        -0.07931639455543402     -0.04232820659444288     -0.014842146968093304    -0.3449859967665698      -0.027720418544833696    -0.09101675719991273     -0.22624882102182348     0.22624882102182348      0.09101675719991273      0.027720418544833696     0.3449859967665698
0.30484536485793645       -0.07783104541801349     -0.041529534518944394    -0.014854674834344732    -0.339669393730239       -0.028345212058185056    -0.09049218661657277     -0.22083199505548126     0.22083199505548126      0.09049218661657277      0.028345212058185056     0.339669393730239
0.30504874395678844       -0.07775005053056061     -0.04148598357645078     -0.014855357968761751    -0.3393794836655205      -0.02837928154327801     -0.09046358220681595     -0.22053661991542658     0.22053661991542658      0.09046358220681595      0.02837928154327801      0.3393794836655205
0.30523278595892195       -0.07768441395219938     -0.0414500889507982      -0.014855999543276897    -0.3391430929299009      -0.028405437121103345    -0.09044255922511181     -0.2202950965836858      0.2202950965836858       0.09044255922511181      0.028405437121103345     0.3391430929299009
0.30558635539964063       -0.07755995686345214     -0.041380981206296755    -0.014857410485261482    -0.3386924992868404      -0.02845267183303182     -0.09040661204906002     -0.21983321540474865     0.21983321540474865      0.09040661204906002      0.02845267183303182      0.3386924992868404
0.30984545548860565       -0.07606074585506235     -0.040548508806657266    -0.014874406702807477    -0.33326464494132635     -0.029021661521076964    -0.08997359210138285     -0.21426939131886663     0.21426939131886663      0.08997359210138285      0.029021661521076964     0.33326464494132635