% Model:              Prism_potential.mph
% Version:            COMSOL 6.2.0.339
% Date:               May 6 2024, 20:12
% Dimension:          1
% Nodes:              774
% Expressions:        11
% Description:        Line graph
% Arc length (m)          Magnetic scalar potential Magnetic scalar potential Magnetic scalar potential Magnetic scalar potential Magnetic scalar potential Magnetic scalar potential Magnetic scalar potential Magnetic scalar potential Magnetic scalar potential Magnetic scalar potential Magnetic scalar potential
1.888138083383506E-15     -2.1477070319911967E-6   1.721308768000418E-5     1.480599881634523E-5     1.0656784424070828E-4    1.1515867236947495E-4    3.2893181609468768E-6    -1.188014628984821E-5    1.188014628984821E-5     -3.2893181609468768E-6   -1.1515867236947495E-4   -1.0656784424070828E-4
0.0024948184011655146     -9.590860261427997E-4    2.875150808086668E-4     -1.7260505056676244E-4   -0.001746047012127356    0.0020902970924446583    -0.0034711374969790855   -3.6520660759305397E-4   3.6520660759305397E-4    0.0034711374969790855    -0.0020902970924446583   0.001746047012127356
0.005085023233745349      -0.001951676759592799    5.68582340365201E-4      -3.6681745091102854E-4   -0.0036648763017348243   0.00414183073663719      -0.007076370343925742    -7.303366944463794E-4    7.303366944463794E-4     0.007076370343925742     -0.00414183073663719     0.0036648763017348243
0.006151758890394222      -0.0023602443248940575   6.855750482374093E-4     -4.467848273337227E-4    -0.004450902814411496    0.004990074485165559     -0.008564353103835663    -8.766241957414982E-4    8.766241957414982E-4     0.008564353103835663     -0.004990074485165559    0.004450902814411496
0.006436070144824932      -0.002469404217897607    7.164315625954206E-4     -4.681489851565929E-4    -0.004662109688636042    0.005215507182955211     -0.008960699064208277    -9.169178073830824E-4    9.169178073830824E-4     0.008960699064208277     -0.005215507182955211    0.004662109688636042
0.010507111904876635      -0.004033159359915018    0.0011560331059468887    -7.73513912763432E-4     -0.007692275053043808    0.008440362386617068     -0.014628473688724847    -0.001504163750936138    0.001504163750936138     0.014628473688724847     -0.008440362386617068    0.007692275053043808
0.010926195402356816      -0.004194090044967333    0.0012014203086258902    -8.049616951939244E-4    -0.008003765944833404    0.008772594235036733     -0.015212287796588453    -0.0015640723832817927   0.0015640723832817927    0.015212287796588453     -0.008772594235036733    0.008003765944833404
0.011625746293272007      -0.004462721963859017    0.0012771824377985931    -8.574555880549736E-4    -0.008523718966542857    0.009327168888894009     -0.016186813593334126    -0.0016640742621028524   0.0016640742621028524    0.016186813593334126     -0.009327168888894009    0.008523718966542857
0.023013789126714986      -0.008828035891843045    0.002508649500982315     -0.0017126685921254603   -0.01698079764924165     0.018331345918131226     -0.032032694655135176    -0.003279448912237816    0.003279448912237816     0.032032694655135176     -0.018331345918131226    0.01698079764924165
0.027722521825746138      -0.010633002705459117    0.003017687059599829     -0.002066315115164809    -0.02047820469277863     0.022053806129058495     -0.03858432705037722     -0.003947683771460027    0.003947683771460027     0.03858432705037722      -0.022053806129058495    0.02047820469277863
0.030163596942089616      -0.01156897497600823     0.00328200341310577      -0.0022495877742845036   -0.022290290809837802    0.02398560909419575      -0.041982311288472025    -0.004293588615561653    0.004293588615561653     0.041982311288472025     -0.02398560909419575     0.022290290809837802
0.034231045267410165      -0.013128541422326386    0.0037224212856344016    -0.0025549663615399712   -0.025309684433910077    0.027204481255396068     -0.04764421214771608     -0.004869953541590198    0.004869953541590198     0.04764421214771608      -0.027204481255396068    0.025309684433910077
0.09091631104595653       -0.0348631485218736      0.009857717008482035     -0.006811095840390873    -0.06739752937986504     0.07205506470762953      -0.12654383143075665     -0.012908762656738109    0.012908762656738109     0.12654383143075665      -0.07205506470762953     0.06739752937986504
0.09361872379968045       -0.03589763912987955     0.010149329922943855     -0.0070144804555855155   -0.06940521031327004     0.07418534620624831      -0.13030118985093259     -0.013289366668585958    0.013289366668585958     0.13030118985093259      -0.07418534620624831     0.06940521031327004
0.10510643786776522       -0.04029370380906179     0.011392579957885077     -0.007874599548032084    -0.07790806593659713     0.0832667492996502       -0.14626354568390704     -0.01491126955234049     0.01491126955234049      0.14626354568390704      -0.0832667492996502      0.07790806593659713
0.13134355434718886       -0.050352073909753554    0.014223028073107538     -0.009840554365942077    -0.0973972810639532      0.10401101457506104      -0.18273544950259812     -0.018672846136416586    0.018672846136416586     0.18273544950259812      -0.10401101457506104     0.0973972810639532
0.17674905795289725       -0.06775891662559388     0.019121353016791565     -0.013242802042178828    -0.1311249823695287      0.13991068413284663      -0.24585310047027817     -0.025182566032098022    0.025182566032098022     0.24585310047027817      -0.13991068413284663     0.1311249823695287
0.20092428908050214       -0.07700015088252979     0.021715677011366494     -0.015049734251249149    -0.149052207735957       0.1589483957941621       -0.2793462698041562      -0.028654333725963637    0.028654333725963637     0.2793462698041562       -0.1589483957941621      0.149052207735957
0.2330687174100063        -0.08932249412278617     0.025165762155115456     -0.01744934505315019     -0.1729450819928268      0.18434489449831734      -0.3239396549235197      -0.03335032156762523     0.03335032156762523      0.3239396549235197       -0.18434489449831734     0.1729450819928268
0.25264305308376633       -0.0968261796884329      0.02726669000533356      -0.018910587009028403    -0.1874946373969787      0.1998100813567522       -0.3510947774289802      -0.03620994132475152     0.03620994132475152      0.3510947774289802       -0.1998100813567522      0.1874946373969787
0.26258180485983795       -0.10062095951625662     0.028332687189220215     -0.019658516055580656    -0.1948779216871752      0.20760591637785059      -0.36487404482249663     -0.037609793242529915    0.037609793242529915     0.36487404482249663      -0.20760591637785059     0.1948779216871752
0.3004830505004247        -0.11508068495557625     0.03235145684920565      -0.022480097493682773    -0.22302738933826652     0.2372953504840371       -0.41713613043349995     -0.043186609388804156    0.043186609388804156     0.41713613043349995      -0.2372953504840371      0.22302738933826652
0.33136795694900995       -0.12691179266075425     0.0356336472211394       -0.024775531433012102    -0.2460247693901388      0.2616224012528774       -0.45982665271697476     -0.0478205179260416      0.0478205179260416       0.45982665271697476      -0.2616224012528774      0.2460247693901388
0.3347400105092572        -0.12820352812141783     0.035992000960935036     -0.02502614984431646     -0.24853565273729655     0.26427845974837416      -0.4644876585029063      -0.048326453982764486    0.048326453982764486     0.4644876585029063       -0.26427845974837416     0.24853565273729655
0.3532217225285426        -0.1352503642626965      0.037954310718015034     -0.02640021050183802     -0.2622386383787002      0.2787628186720852       -0.4899645026867899      -0.051036954363995524    0.051036954363995524     0.4899645026867899       -0.2787628186720852      0.2622386383787002
0.387626271072985         -0.14833355506659626     0.04156728674951826      -0.02894164200679541     -0.28773181791182006     0.30560240235456493      -0.5371355384089292      -0.05619868185745604     0.05619868185745604      0.5371355384089292       -0.30560240235456493     0.28773181791182006
0.40413382547737253       -0.15460664146278053     0.043296753229163244     -0.03016846648911851     -0.2999968891945462      0.31842967665657596      -0.5597774085695251      -0.05864915728159728     0.05864915728159728      0.5597774085695251       -0.31842967665657596     0.2999968891945462
0.4312174528764939        -0.16499488956706104     0.04611939616667502      -0.03217048853858194     -0.3203135447884257      0.33966601347981873      -0.5970299217884751      -0.06294963647976917     0.06294963647976917      0.5970299217884751       -0.33966601347981873     0.3203135447884257
0.4371730945750897        -0.16727924692708068     0.046740090349590764     -0.03261072964157685     -0.3247811413716974      0.3443358463366255       -0.6052216834692411      -0.06389530423908145     0.06389530423908145      0.6052216834692411       -0.3443358463366255      0.3247811413716974
0.4647094162129614        -0.17770328440765848     0.04955300582420197      -0.034626098226479565    -0.34525194424863004     0.3655611933820042       -0.642569979193841       -0.06824315843679274     0.06824315843679274      0.642569979193841        -0.3655611933820042      0.34525194424863004
0.46800595957900437       -0.1789548660705547      0.04989761457546725      -0.034871226134591135    -0.34770179295307296     0.3681176713291461       -0.6470874804058755      -0.06873198387634305     0.06873198387634305      0.6470874804058755       -0.3681176713291461      0.34770179295307296
0.4893721974006957        -0.18706687567982228     0.05213116399902849      -0.036459999768026566    -0.3635802584346662      0.3846872442846232       -0.6763672424288365      -0.07190026029045289     0.07190026029045289      0.6763672424288365       -0.3846872442846232      0.3635802584346662
0.518525918049483         -0.19823170739927776     0.05511271871330006      -0.03859530765776362     -0.38550648928971065     0.4074203403074007       -0.7161828015695103      -0.07674402802760091     0.07674402802760091      0.7161828015695103       -0.4074203403074007      0.38550648928971065
0.5451376007454001        -0.20827898569592934     0.057792332994734893     -0.040546179881172234    -0.40536569193234384     0.42775025085137386      -0.7521196899007525      -0.08099625288296508     0.08099625288296508      0.7521196899007525       -0.42775025085137386     0.40536569193234384
0.550502513117902         -0.21034120006357715     0.05836883753408062      -0.0409290412489703      -0.40929205252079454     0.43207274773351434      -0.7595050777252776      -0.08185972252903118     0.08185972252903118      0.7595050777252776       -0.43207274773351434     0.40929205252079454
0.5512694774832985        -0.21063601288137845     0.05845125424612867      -0.04098377485981046     -0.40985336246361365     0.4326906890619005       -0.760560887940385       -0.08198316358512905     0.08198316358512905      0.760560887940385        -0.4326906890619005      0.40985336246361365
0.5520721839780325        -0.210936040434805       0.058533651967286965     -0.0410425019883723      -0.4104411329212391      0.433303028817981        -0.7616430447249602      -0.08210111701425978     0.08210111701425978      0.7616430447249602       -0.433303028817981       0.4104411329212391
0.5590921760405436        -0.21355990240353942     0.05925425327336205      -0.0415560944148231      -0.41558142264628595     0.43865818696787195      -0.7711069422864575      -0.08313266732770028     0.08313266732770028      0.7711069422864575       -0.43865818696787195     0.41558142264628595
0.5592788122498473        -0.21363138781627536     0.059273590620066055     -0.04156943725570637     -0.41571975279517887     0.43880579846992274      -0.7713612965155745      -0.08316425474952704     0.08316425474952704      0.7713612965155745       -0.43880579846992274     0.41571975279517887
0.5597027461111528        -0.2137917448196476      0.05931548720983905      -0.0416002034028901      -0.41603784162133933     0.4391291376572514       -0.771930764880373       -0.0832362143982177      0.0832362143982177       0.771930764880373        -0.4391291376572514      0.41603784162133933
0.5848918680575216        -0.22335102593807732     0.061817801119335984     -0.04342913294632904     -0.43496518030346365     0.45843892344884585      -0.8058719870194788      -0.08753211673283058     0.08753211673283058      0.8058719870194788       -0.45843892344884585     0.43496518030346365
0.6229436734064687        -0.2377917001770931      0.06559790754816953      -0.046191995071180145    -0.46355765799439885     0.4876091427139737       -0.8571451032834151      -0.0940216974249572      0.0940216974249572       0.8571451032834151       -0.4876091427139737      0.46355765799439885
0.6361310660234403        -0.24280419217433113     0.06692658902675058      -0.04715135404201582     -0.4734340334364745      0.49778273526085026      -0.874993567596977       -0.0962232011003474      0.0962232011003474       0.874993567596977        -0.49778273526085026     0.4734340334364745
0.6385030104970153        -0.24370919305496327     0.06717822997709874      -0.04731915848584463     -0.4751603301220096      0.4996764420978438       -0.878229709984601       -0.09660706223525206     0.09660706223525206      0.878229709984601        -0.4996764420978438      0.4751603301220096
0.6562673115097133        -0.250331673195879       0.06891633022839885      -0.048613009348812075    -0.4883663931018103      0.5129602996817061       -0.9018643744722027      -0.09946231831131322     0.09946231831131322      0.9018643744722027       -0.5129602996817061      0.4883663931018103
0.6583527251949044        -0.25110319667378167     0.0691124702436478       -0.04876809949808905     -0.4899413806089767      0.5144714060861504       -0.9046162020708629      -0.09979658462426369     0.09979658462426369      0.9046162020708629       -0.5144714060861504      0.4899413806089767
0.668944177903817         -0.25514366506627445     0.0701534404616173       -0.04952649578110671     -0.4979329918721245      0.5226416683929738       -0.9188536346418277      -0.10172102562327016     0.10172102562327016      0.9188536346418277       -0.5226416683929738      0.4979329918721245
0.6793355576936109        -0.25911102565624666     0.07117519483919275      -0.050270365868983015    -0.5057779302708478      0.5306661723541395       -0.9328290993060039      -0.10361500331898305     0.10361500331898305      0.9328290993060039       -0.5306661723541395      0.5057779302708478
0.679771721784602         -0.25927755024300636     0.07121808159516996      -0.050301588808309386    -0.5061072109337412      0.5310029900382851       -0.9334157005047605      -0.10369450046726544     0.10369450046726544      0.9334157005047605       -0.5310029900382851      0.5061072109337412
0.6831464061424273        -0.2605585844484892      0.07154863282311635      -0.05054895178112426     -0.5086670775521273      0.5335672602418305       -0.9379588744908249      -0.1042754633031325      0.1042754633031325       0.9379588744908249       -0.5335672602418305      0.5086670775521273
0.7875058316543206        -0.29967420722317933     0.08143359226145674      -0.057992085899639695    -0.587015981260548       0.6116808476321697       -1.0756175348292878      -0.12307929406342971     0.12307929406342971      1.0756175348292878       -0.6116808476321697      0.587015981260548
0.7981533134704797        -0.3036576869318216      0.08245875244561926      -0.05873147058221157     -0.5948649988556324      0.6197657488716541       -1.0896175135293473      -0.12501323419793908     0.12501323419793908      1.0896175135293473       -0.6197657488716541      0.5948649988556324
0.8010928215662734        -0.30476229341146704     0.08275480982698188      -0.05894495057245169     -0.5970399596317959      0.6220092140140725       -1.0935688185936867      -0.1254803550521816      0.1254803550521816       1.0935688185936867       -0.6220092140140725      0.5970399596317959
0.8134858690920579        -0.3094193449158074      0.0840029959445289       -0.059844988122487966    -0.6062096544879807      0.6314677251752492       -1.1102276301551537      -0.12744974950807614     0.12744974950807614      1.1102276301551537       -0.6314677251752492      0.6062096544879807
0.840091372048686         -0.3193325503062885      0.08641331977208928      -0.061721295097339895    -0.6263103216856694      0.6510198795394847       -1.1447902403182044      -0.13253996090694936     0.13253996090694936      1.1447902403182044       -0.6510198795394847      0.6263103216856694
0.8408515029421063        -0.31961577493400584     0.08648218378144337      -0.06177490201089645     -0.6268846065672681      0.6515784931687554       -1.1457777092559276      -0.1326853904800956      0.1326853904800956       1.1457777092559276       -0.6515784931687554      0.6268846065672681
0.9217514869691682        -0.3498083101842109      0.09376907714284086      -0.0673673871446965      -0.6877789375186858      0.711454303218158        -1.2503934003757304      -0.14883984036111292     0.14883984036111292      1.2503934003757304       -0.711454303218158       0.6877789375186858
0.9219975972295447        -0.3499011940009594      0.09379199679910234      -0.06738465106205682     -0.6879650018528397      0.7116397741509982       -1.2507169826474533      -0.14888779335638436     0.14888779335638436      1.2507169826474533       -0.7116397741509982      0.6879650018528397
0.9222383472697755        -0.34998983730780836     0.09381332428771179      -0.0674016924542751      -0.6881464715695824      0.7118128776616512       -1.2510264172958527      -0.14893293193538068     0.14893293193538068      1.2510264172958527       -0.7118128776616512      0.6881464715695824
0.9310344520266576        -0.3532454407072811      0.09461748068849235      -0.06802029274044835     -0.6947196103108793      0.7182621525182453       -1.2624244944418328      -0.15055726838729155     0.15055726838729155      1.2624244944418328       -0.7182621525182453      0.6947196103108793
0.935166019787663         -0.35481106128147255     0.09500015563527259      -0.06830583588717307     -0.6978449992058203      0.7213992459200702       -1.2678459330174554      -0.1513983121084349      0.1513983121084349       1.2678459330174554       -0.7213992459200702      0.6978449992058203
0.9359914495950163        -0.35512482523559946     0.09507179588495204      -0.0683613753048714      -0.698479764035829       0.7220195369065691       -1.2689105393455409      -0.15158876159685702     0.15158876159685702      1.2689105393455409       -0.7220195369065691      0.698479764035829
0.9459248582410043        -0.3589007314931129      0.09593393082268638      -0.06902974919571336     -0.7061186673010208      0.729484258671431        -1.2817222522371385      -0.15388067373531306     0.15388067373531306      1.2817222522371385       -0.729484258671431       0.7061186673010208
1.0438568340733434        -0.39509371391855413     0.10431093282492654      -0.07568085260340839     -0.779978039775963       0.8003968158982541       -1.4058436367255218      -0.17453121894869505     0.17453121894869505      1.4058436367255218       -0.8003968158982541      0.779978039775963
1.0481456445415218        -0.3966822207907325      0.10468074051801667      -0.07597128143824394     -0.7832073457803918      0.8035215373825392       -1.4112917888884917      -0.17543709427443932     0.17543709427443932      1.4112917888884917       -0.8035215373825392      0.7832073457803918
1.0490449194448108        -0.3970143781411653      0.10475924657317148      -0.0760344785916155      -0.7838889309292789      0.8041685816353829       -1.4124444103683076      -0.17561310219635426     0.17561310219635426      1.4124444103683076       -0.8041685816353829      0.7838889309292789
1.0495784358113218        -0.39720902485660836     0.1048052986742476       -0.0760709408430088      -0.7842859170625098      0.8045501823639241       -1.4131177091079952      -0.17571839031843864     0.17571839031843864      1.4131177091079952       -0.8045501823639241      0.7842859170625098
1.050070894991576         -0.397387874526167       0.10484738030873988      -0.07610522300203718     -0.7846545001342637      0.8048969979704046       -1.4137387819867029      -0.17581271611796562     0.17581271611796562      1.4137387819867029       -0.8048969979704046      0.7846545001342637
1.0587250081231698        -0.4005794444169144      0.10554953195396369      -0.07667542334082947     -0.7912119863352566      0.8111057913324018       -1.4245091780590384      -0.17780859960861992     0.17780859960861992      1.4245091780590384       -0.8111057913324018      0.7912119863352566
1.1307788682628668        -0.427152349928681       0.11139562336419886      -0.08142289253128375     -0.8458093998899013      0.8627999998248232       -1.514183140075094       -0.1944262596396305      0.1944262596396305       1.514183140075094        -0.8627999998248232      0.8458093998899013
1.141069042621237         -0.43094685957560136     0.11223038096023841      -0.08210140753775463     -0.8536082064215069      0.870179231880899        -1.5269904921829367      -0.1967969461194689      0.1967969461194689       1.5269904921829367       -0.870179231880899       0.8536082064215069
1.1411822599034653        -0.4309882824902941      0.1122392364054497       -0.08210876587058961     -0.8536939192465985      0.8702592107145785       -1.527129337679296       -0.1968237922818807      0.1968237922818807       1.527129337679296        -0.8702592107145785      0.8536939192465985
1.1412363213620085        -0.4310078876082727      0.11224361821829533      -0.08211236990174145     -0.8537344001686261      0.8702971502644653       -1.5271961094783977      -0.19683544095469366     0.19683544095469366      1.5271961094783977       -0.8702971502644653      0.8537344001686261
1.152770833305524         -0.4351908207656597      0.11317851849594104      -0.08288132326492574     -0.8623713791032         0.8783919039594392       -1.5414424900788457      -0.19932079298379327     0.19932079298379327      1.5414424900788457       -0.8783919039594392      0.8623713791032
1.1669664879375286        -0.4403167063489264      0.11425061018307833      -0.08379962992615363     -0.8730801018532331      0.8881867235424731       -1.5585837629517025      -0.20268306244400328     0.20268306244400328      1.5585837629517025       -0.8881867235424731      0.8730801018532331
1.167199412583703         -0.44040081272631904     0.11426820124057915      -0.08381469765354564     -0.873255812345084       0.8883474385601926       -1.5588650197885583      -0.20273823111671796     0.20273823111671796      1.5588650197885583       -0.8883474385601926      0.873255812345084
1.1677052610894423        -0.4405858627268916      0.11430685430349828      -0.08384730927477757     -0.8736403996423995      0.8887030512651676       -1.5594815254633887      -0.20286192544417814     0.20286192544417814      1.5594815254633887       -0.8887030512651676      0.8736403996423995
1.2544539639021026        -0.4723890702109761      0.12087891936575756      -0.08940258807139598     -0.9397517346102643      0.9498045462336406       -1.6650252508048091      -0.2245310300390957      0.2245310300390957       1.6650252508048091       -0.9498045462336406      0.9397517346102643
1.2559632307997268        -0.4729392489385914      0.12098769412533505      -0.08949717696046429     -0.9409041233430356      0.9508528724113307       -1.6668302880950454      -0.22492670765932057     0.22492670765932057      1.6668302880950454       -0.9508528724113307      0.9409041233430356
1.2816488735803997        -0.48216097069245206     0.12277426393423335      -0.09110213263297369     -0.9604076801140997      0.9682362026557094       -1.697053263719499       -0.23159061905030942     0.23159061905030942      1.697053263719499        -0.9682362026557094      0.9604076801140997
1.2830364646478265        -0.4826591470021209      0.12287077809700236      -0.09118883562786487     -0.961461302224695       0.9691752857837894       -1.6986859708067086      -0.23195061720177537     0.23195061720177537      1.6986859708067086       -0.9691752857837894      0.961461302224695
1.2851511853104371        -0.48342951187648625     0.1230109731568902       -0.09131953139645818     -0.9631042298681355      0.9706138176378104       -1.701170068809476       -0.2325479786964694      0.2325479786964694       1.701170068809476        -0.9706138176378104      0.9631042298681355
1.2876772915855175        -0.4843592422256142      0.12319282910157339      -0.09147282017209671     -0.965031277834896       0.9724056910675618       -1.7041882524443357      -0.23324871645812162     0.23324871645812162      1.7041882524443357       -0.9724056910675618      0.965031277834896
1.3625155780233482        -0.5116808018483453      0.12843221981376718      -0.09608977976530468     -1.0224240633166084      1.0242991440767735       -1.7930173821992108      -0.2537058251941704      0.2537058251941704       1.7930173821992108       -1.0242991440767735      1.0224240633166084
1.3776248013322387        -0.5170915825631788      0.12934810263823046      -0.0969779005188712      -1.0340504592871516      1.034315870965564        -1.8101390751165336      -0.25822725513618133     0.25822725513618133      1.8101390751165336       -1.034315870965564       1.0340504592871516
1.3978215521820938        -0.5243635925410706      0.13055318363493895      -0.09818622571545013     -1.0498125370391256      1.0476418331251571       -1.8331316388487582      -0.26432273131552386     0.26432273131552386      1.8331316388487582       -1.0476418331251571      1.0498125370391256
1.4233521453804525        -0.5335560973088016      0.13207651938962345      -0.09971366244398741     -1.0697372862246834      1.0644871030105236       -1.8621964025624231      -0.2720279866727836      0.2720279866727836       1.8621964025624231       -1.0644871030105236      1.0697372862246834
1.4390197857950167        -0.5391521222607588      0.13308493991674433      -0.10063687506347757     -1.081596925025196       1.07501156401784         -1.8801065645256607      -0.2765019245173748      0.2765019245173748       1.8801065645256607       -1.07501156401784        1.081596925025196
1.451761785725008         -0.5438341122463107      0.133902285029709        -0.10140167146852569     -1.0915680552775984      1.0837683937076454       -1.8949817654558514      -0.28035468352939225     0.28035468352939225      1.8949817654558514       -1.0837683937076454      1.0915680552775984
1.4887271023919288        -0.5570963987022319      0.13626600154738605      -0.10357637740761877     -1.119700302392782       1.1086852924161468       -1.9372963116770974      -0.2910892831318312      0.2910892831318312       1.9372963116770974       -1.1086852924161468      1.119700302392782
1.4903246531010748        -0.557676502644436       0.13635348816072784      -0.10366641584198302     -1.1209582041746218      1.109747806403123        -1.9390791331389878      -0.2916268774387569      0.2916268774387569       1.9390791331389878       -1.109747806403123       1.1209582041746218
1.5323805154216465        -0.5729478623485634      0.13865659187100796      -0.10603669678361692     -1.1540727362185716      1.1377187131756825       -1.9860122874446184      -0.3057791619496356      0.3057791619496356       1.9860122874446184       -1.1377187131756825      1.1540727362185716
1.5819451549800296        -0.5908464859175119      0.14132318005134414      -0.10892012343721111     -1.1934039254298365      1.1699820182402116       -2.0413430057379007      -0.32204293793214717     0.32204293793214717      2.0413430057379007       -1.1699820182402116      1.1934039254298365
1.5864035397010308        -0.5924427509347505      0.14155727719763944      -0.10916162184030154     -1.19686015763779        1.172910846101213        -2.046203820823626       -0.323567182915377       0.323567182915377        2.046203820823626        -1.172910846101213       1.19686015763779
1.6583551159888237        -0.6178959633760892      0.14529432232776054      -0.11293154165821054     -1.2516351264017398      1.2199487271026173       -2.1234010603683022      -0.34818279313605527     0.34818279313605527      2.1234010603683022       -1.2199487271026173      1.2516351264017398
1.6682455555317182        -0.6214056334296212      0.14574790776852586      -0.11345338050190137     -1.2593810655612712      1.226241468157214        -2.1338685121724255      -0.35175402154605995     0.35175402154605995      2.1338685121724255       -1.226241468157214       1.2593810655612712
1.6800764519479483        -0.625603883939965       0.14629048450056398      -0.11407760162765579     -1.2686467208888623      1.2337688148709987       -2.146389627892245       -0.35602590786761557     0.35602590786761557      2.146389627892245        -1.2337688148709987      1.2686467208888623
1.680889283945281         -0.6258886718853738      0.14632517245501947      -0.11412581561019222     -1.2693050888464588      1.2342495986950366       -2.147256123576575       -0.35629856396492066     0.35629856396492066      2.147256123576575        -1.2342495986950366      1.2693050888464588
1.6817030058842142        -0.6261752424780893      0.1463607723215349       -0.11416365007253602     -1.269922768281719       1.234778201630639        -2.148087402210927       -0.35661356770143016     0.35661356770143016      2.148087402210927        -1.234778201630639       1.269922768281719