% Model:              Prism_potential.mph
% Version:            COMSOL 6.2.0.339
% Date:               May 6 2024, 20:11
% Dimension:          1
% Nodes:              741
% Expressions:        11
% Description:        Line graph
% Arc length (m)          Magnetic scalar potential Magnetic scalar potential Magnetic scalar potential Magnetic scalar potential Magnetic scalar potential Magnetic scalar potential Magnetic scalar potential Magnetic scalar potential Magnetic scalar potential Magnetic scalar potential Magnetic scalar potential
0                         -2.1477070312686725E-6   1.7213087679799787E-5    1.480599881648714E-5     1.0656784424210714E-4    1.1515867236798382E-4    3.2893181635731714E-6    -1.1880146289583864E-5   1.1880146289583864E-5    -3.2893181635731714E-6   -1.1515867236798382E-4   -1.0656784424210714E-4
0.004551596888069812      0.001743474711960977     5.114733921886242E-4     3.5652695532637673E-4    0.00644747742179262      -5.264214260504874E-4    0.0033786370686611604    0.0035952617791818447    -0.0035952617791818447   -0.0033786370686611604   5.264214260504874E-4     -0.00644747742179262
0.013754739220535196      0.0052721339307421145    0.0015066481732723177    0.001047487094018205     0.019254160757373285     -0.001834374965594362    0.01021427171773968      0.010874264005227889     -0.010874264005227889    -0.01021427171773968     0.001834374965594362     -0.019254160757373285
0.01395114222832221       0.00534747395673686      0.0015278929717903091    0.0010622339713189423    0.019527562714119703     -0.001862333112826932    0.010360204883378146     0.011029690943568407     -0.011029690943568407    -0.010360204883378146    0.001862333112826932     -0.019527562714119703
0.017449796511489805      0.00668955475076582      0.001906340359982086     0.0013249296703966313    0.024397849263063702     -0.0023603697399987664   0.012959807103171492     0.013798411899890907     -0.013798411899890907    -0.012959807103171492    0.0023603697399987664    -0.024397849263063702
0.025257095398006715      0.009682533887708926     0.0027489248130322125    0.0019107126462093505    0.03525469279935117      -0.003475442751483733    0.018761143921158206     0.019968991629676636     -0.019968991629676636    -0.018761143921158206    0.003475442751483733     -0.03525469279935117
0.07011170151452234       0.026882667166437852     0.0075949852801454835    0.005276142199335984     0.09765485897065537      -0.009875809695095317    0.052084947289782794     0.05544572137596786      -0.05544572137596786     -0.052084947289782794    0.009875809695095317     -0.09765485897065537
0.12310761876183182       0.04720470137434901      0.013320627342935334     0.009252412231355686     0.1713809337029261       -0.017437871794469366    0.09145716964531438      0.09736163585208102      -0.09736163585208102     -0.09145716964531438     0.017437871794469366     -0.1713809337029261
0.13577434541804248       0.052062397607609556     0.014673616794501881     0.010195521393241598     0.18892773117169043      -0.019321859258747163    0.10088603040467947      0.10736356002575811      -0.10736356002575811     -0.10088603040467947     0.019321859258747163     -0.18892773117169043
0.17140929274153704       0.0657284183629325       0.018479944123131656     0.012848743983122891     0.2382916450277508       -0.02462202842397862     0.12741198028896122      0.13550169316276822      -0.13550169316276822     -0.12741198028896122     0.02462202842397862      -0.2382916450277508
0.23599134678193895       0.09047408568950628      0.025418598004746325     0.017687066468386074     0.32795223126679507      -0.03394411149122945     0.1754406432383175       0.18645569951970706      -0.18645569951970706     -0.1754406432383175      0.03394411149122945      -0.32795223126679507
0.24366722772735408       0.09340946306176343      0.026248627768045228     0.01826357323934625      0.3386191023850468       -0.03501874986200636     0.18112733577677584      0.19251051647027734      -0.19251051647027734     -0.18112733577677584     0.03501874986200636      -0.3386191023850468
0.24597017448961872       0.09429258636292978      0.02649540973210112      0.01843564170652426      0.3418139687482592       -0.035356376703459334    0.18284151035565288      0.19432883509606572      -0.19432883509606572     -0.18284151035565288     0.035356376703459334     -0.3418139687482592
0.2532268091468532        0.09707532683216805      0.027273024995507118     0.01897783313830242      0.3518810612040663       -0.03642024612460524     0.18824291123102405      0.20005839609764756      -0.20005839609764756     -0.18824291123102405     0.03642024612460524      -0.3518810612040663
0.2747708304677138        0.10532320644435195      0.029593687609199195     0.0205917256948643       0.3817943784957578       -0.03949844728164936     0.20423225284056312      0.2170605729368441       -0.2170605729368441      -0.20423225284056312     0.03949844728164936      -0.3817943784957578
0.3162043891957581        0.12105646051696563      0.03400269402396109      0.023672342538604202     0.43881037326023065      -0.04541546880763135     0.23479420911646437      0.24943163295139753      -0.24943163295139753     -0.23479420911646437     0.04541546880763135      -0.43881037326023065
0.3300246266487561        0.12634706565480985      0.03547099669486804      0.024697480570973946     0.45789704367811895      -0.04749121894111996     0.2450710635089109       0.2603171991103279       -0.2603171991103279      -0.2450710635089109      0.04749121894111996      -0.45789704367811895
0.34495933921340544       0.13206267548349138      0.037049396624190586     0.025805064434493586     0.47849379857752816      -0.049756903356436774    0.2561974188323849       0.27205328310158         -0.27205328310158        -0.2561974188323849      0.049756903356436774     -0.47849379857752816
0.36364676814906505       0.13926796602469557      0.0390214940451261       0.027187944086373268     0.5043521905302618       -0.05271967356851993     0.2702232262595055       0.28684863783927617      -0.28684863783927617     -0.2702232262595055      0.05271967356851993      -0.5043521905302618
0.3642268366928765        0.1394916223878242       0.03908270908348985      0.027230869466247302     0.5051548498911065       -0.052811639660189785    0.2706585953901677       0.28730789416112856      -0.28730789416112856     -0.2706585953901677      0.052811639660189785     -0.5051548498911065
0.3912082474596289        0.14979700099903015      0.04205756707576101      0.02921410906596795      0.5426231394892143       -0.056564864506905635    0.2902777370346486       0.30891026696147134      -0.30891026696147134     -0.2902777370346486      0.056564864506905635     -0.5426231394892143
0.40519468771967243       0.1550973535436122       0.04348710887260725      0.030257514281596117     0.5616860908314298       -0.058703323343018386    0.30076343759578683      0.31962597657866154      -0.31962597657866154     -0.30076343759578683     0.058703323343018386     -0.5616860908314298
0.4080627072986066        0.15618422873061338      0.04378024663933211      0.030471471981450074     0.5655950853050227       -0.05914182961743028     0.3029136054690303       0.32182330945342263      -0.32182330945342263     -0.3029136054690303      0.05914182961743028      -0.5655950853050227
0.41343645142146684       0.15821919659220102      0.044314882797308        0.03087108506371841      0.5728673818311989       -0.06000940453760459     0.3069780850473513       0.3258987013214522       -0.3258987013214522      -0.3069780850473513      0.06000940453760459      -0.5728673818311989
0.41487570284420083       0.15877422163002985      0.04446084707852318      0.030975451720701323     0.5748327913784338       -0.060264095141685035    0.30806770890729507      0.32702917761282374      -0.32702917761282374     -0.30806770890729507     0.060264095141685035     -0.5748327913784338
0.41761163365850434       0.1598185878082718       0.04474346130758573      0.03117686519883651      0.578575020334646        -0.060699330898440484    0.31011425248913205      0.32916009874395447      -0.32916009874395447     -0.31011425248913205     0.060699330898440484     -0.578575020334646
0.4847864456583988        0.18546072075830095      0.051682437105702014     0.03612213371850884      0.6704572877077425       -0.07138559532546077     0.3603626650735309       0.38148021795967235      -0.38148021795967235     -0.3603626650735309      0.07138559532546077      -0.6704572877077425
0.5502276328670669        0.21029243161219652      0.058333808645067965     0.04094359178242185      0.7593606562892835       -0.08180907015950184     0.409357804418876        0.4318119220299092       -0.4318119220299092      -0.409357804418876       0.08180907015950184      -0.7593606562892835
0.5652389063357084        0.21598052550804292      0.059827839472205865     0.04205107246107048      0.7796488592769844       -0.08427324275518644     0.42068182244374963      0.44324027958842127      -0.44324027958842127     -0.42068182244374963     0.08427324275518644      -0.7796488592769844
0.607272551432826         0.2317764482416304       0.06402778036068829      0.04511976471144877      0.8361152964111196       -0.09099049655540103     0.4519486142469905       0.47515717871953045      -0.47515717871953045     -0.4519486142469905      0.09099049655540103      -0.8361152964111196
0.6288567880968741        0.23991274556178072      0.06619674037751616      0.04668641308059493      0.8651613645784888       -0.09448961766863326     0.4679809223133921       0.49167005993373003      -0.49167005993373003     -0.4679809223133921      0.09448961766863326      -0.8651613645784888
0.6665037077706382        0.2540898569112797       0.06994034922534936      0.049428445568023095     0.9157145437706992       -0.10064488387441901     0.4960724484186033       0.520286979226515        -0.520286979226515       -0.4960724484186033      0.10064488387441901      -0.9157145437706992
0.6872161868539477        0.2619271535126795       0.07195494412049809      0.050936752681338855     0.9434661501122081       -0.10424246393850925     0.5117364853892197       0.5359721286614976       -0.5359721286614976      -0.5117364853892197      0.10424246393850925      -0.9434661501122081
0.7149502381145147        0.2723372373215368       0.07467757686682534      0.052904157174219424     0.9803238339404269       -0.10902511534571996     0.532258372739475        0.5570905765466719       -0.5570905765466719      -0.532258372739475       0.10902511534571996      -0.9803238339404269
0.7153638527375921        0.27249248917602975      0.07471818113003126      0.05293349826326978      0.9808735147952319       -0.1090964419088866      0.5325644280150444       0.557405528689074        -0.557405528689074       -0.5325644280150444      0.1090964419088866       -0.9808735147952319
0.7167380831577632        0.27300904867199605      0.07484947579158296      0.05303265216567272      0.9826971333814315       -0.10933906130655237     0.5336002786319337       0.55843591605605         -0.55843591605605        -0.5336002786319337      0.10933906130655237      -0.9826971333814315
0.7466472905525308        0.28428488347241393      0.0776814507741932       0.0551768806428144       1.0223216418386647       -0.11481789205099069     0.5562329371935055       0.5809065966961497       -0.5809065966961497      -0.5562329371935055      0.11481789205099069      -1.0223216418386647
0.7581420823949571        0.2886184444447809       0.07876984347208056      0.05600095664329241      1.037550245878973        -0.11692353190015045     0.5649311850464893       0.5895425927326338       -0.5895425927326338      -0.5649311850464893      0.11692353190015045      -1.037550245878973
0.7779166474156634        0.2960248475221034       0.08065833791225539      0.057390486945338735     1.0635866565623278       -0.12051273352608552     0.5796366290887951       0.6044627609996178       -0.6044627609996178      -0.5796366290887951      0.12051273352608552      -1.0635866565623278
0.800841034119232         0.3046223921274316       0.08277163576875984      0.05899040960648741      1.0935213299870923       -0.12496823852263365     0.5968915153745326       0.6215980531351926       -0.6215980531351926      -0.5968915153745326      0.12496823852263365      -1.0935213299870923
0.8080020706297916        0.3073318309760412       0.08343131560895378      0.05948704113674114      1.102905773325908        -0.1264215505782561      0.6023178796721848       0.6270094442319786       -0.6270094442319786      -0.6023178796721848      0.1264215505782561       -1.102905773325908
0.8111538748479634        0.3085243428113508       0.08372166208322468      0.05970562476630688      1.107036170937603        -0.1270612003077997      0.6047061984382543       0.6293911728071476       -0.6293911728071476      -0.6047061984382543      0.1270612003077997       -1.107036170937603
0.8174555682484809        0.3108636997921218       0.08429563390611015      0.06015846282062054      1.115248152585056        -0.12820664658343056     0.6094743491483945       0.6339804500200912       -0.6339804500200912      -0.6094743491483945      0.12820664658343056      -1.115248152585056
0.8435577508680301        0.3205967328765162       0.08668979638743912      0.06201755765180619      1.1493330855225743       -0.13305384598348985     0.6291943071979389       0.6531926243081243       -0.6531926243081243      -0.6291943071979389      0.13305384598348985      -1.1493330855225743
0.8714276726869294        0.3310333527903407       0.08927115503523354      0.06398345565594464      1.18581399331016         -0.1383194178512019      0.6501870630987583       0.6739463480626028       -0.6739463480626028      -0.6501870630987583      0.1383194178512019       -1.18581399331016
0.8715758412424812        0.3310888383746751       0.08928487865400403      0.06399390721980364      1.1860079415905764       -0.13834741190812333     0.6502986696665518       0.674056683832147        -0.674056683832147       -0.6502986696665518      0.13834741190812333      -1.1860079415905764
0.9243551909453622        0.3508004154595345       0.09400166183622763      0.06762435873388462      1.2541032513632895       -0.14909841047484756     0.6900932803459241       0.7131083814922129       -0.7131083814922129      -0.6900932803459241      0.14909841047484756      -1.2541032513632895
0.9580967146039464        0.3632820258630903       0.09697608920215436      0.06998299306684364      1.2974242916000172       -0.15570381185234286     0.7155677563870916       0.7375603470652685       -0.7375603470652685      -0.7155677563870916      0.15570381185234286      -1.2974242916000172
0.9625127125815397        0.3649158078598292       0.09736639085187804      0.07029296974039989      1.303102667236891        -0.15656056420242465     0.7189043221256235       0.7407589093136925       -0.7407589093136925      -0.7189043221256235      0.15656056420242465      -1.303102667236891
0.9630624319325221        0.36511758949584855      0.09741503003746883      0.07032857969442013      1.3037945878817832       -0.15667577010161        0.7193044076569708       0.7411659503264226       -0.7411659503264226      -0.7193044076569708      0.15667577010161         -1.3037945878817832
0.9635160930708608        0.36528623006100797      0.0974538909245325       0.07035906502397489      1.304370392991512        -0.15677452725251895     0.7196470474443176       0.7414978727997135       -0.7414978727997135      -0.7196470474443176      0.15677452725251895      -1.304370392991512
1.0251328258898031        0.38819116894097716      0.10273201746646432      0.07449961453842335      1.3825768484350398       -0.17018782732886814     0.7661847436362546       0.7865799321276535       -0.7865799321276535      -0.7661847436362546      0.17018782732886814      -1.3825768484350398
1.0773541158888609        0.4075199966865978       0.10697856040778418      0.07793078437846339      1.4476988121104006       -0.18238117463598974     0.8058274496636962       0.8242525370826942       -0.8242525370826942      -0.8058274496636962      0.18238117463598974      -1.4476988121104006
1.0873629530859692        0.41122459858594473      0.10779246134648116      0.0785884092729309       1.4601802183030554       -0.18471817604072285     0.8134254502241695       0.831472944119609        -0.831472944119609       -0.8134254502241695      0.18471817604072285      -1.4601802183030554
1.1057964661392412        0.41796646192902553      0.10931591394775311      0.07982544886501643      1.483182461161375        -0.18868338655472625     0.8272869774748571       0.8445788702412445       -0.8445788702412445      -0.8272869774748571      0.18868338655472625      -1.483182461161375
1.125406733018119         0.4251714669160803       0.11096469221138133      0.08116157472678315      1.5078833093734363       -0.19280255829088438     0.8420951561051488       0.8585907115591718       -0.8585907115591718      -0.8420951561051488      0.19280255829088438      -1.5078833093734363
1.1626678228854697        0.4388951684604109       0.11381633251160952      0.08354164499908072      1.5534059144519723       -0.20217475938967067     0.8705079193823159       0.8850727544593273       -0.8850727544593273      -0.8705079193823159      0.20217475938967067      -1.5534059144519723
1.1877658836902139        0.44813908207249176      0.11573712017249592      0.08514479586306098      1.5840687081147142       -0.2084876201752523      0.8896459870797395       0.9029103412102273       -0.9029103412102273      -0.8896459870797395      0.2084876201752523       -1.5840687081147142
1.2051697367688372        0.454419774331249        0.1171192822036404       0.08628097258701316      1.605321285621471        -0.21235781170352452     0.9026055923996293       0.9150735049253664       -0.9150735049253664      -0.9026055923996293      0.21235781170352452      -1.605321285621471
1.2173708268200532        0.4589549137256396       0.1180513151549601       0.08710360540097391      1.6204781945200544       -0.2153414603825038      0.9121703035902943       0.9236493513122641       -0.9236493513122641      -0.9121703035902943      0.2153414603825038       -1.6204781945200544
1.2286303099032838        0.4630704886798671       0.1189169459982943       0.08784772864687825      1.6342827299421292       -0.21799922477733868     0.920781053952364        0.9315009007671042       -0.9315009007671042      -0.920781053952364       0.21799922477733868      -1.6342827299421292
1.2309147206680533        0.46389616996743566      0.11909820949583305      0.08799806927652803      1.6370792455284813       -0.21850543434126046     0.922489988553484        0.9330946913162583       -0.9330946913162583      -0.922489988553484       0.21850543434126046      -1.6370792455284813
1.2325924014281346        0.4645081724988348       0.11922403851019266      0.0881024124421507       1.6390981102968494       -0.21893457969848934     0.9237538792356943       0.9342788107596449       -0.9342788107596449      -0.9237538792356943      0.21893457969848934      -1.6390981102968494
1.2732858652580104        0.47917415582966677      0.12216470051624936      0.0906415598842819       1.6874086527452081       -0.2292879705734585      0.9544204496477128       0.9622761736709541       -0.9622761736709541      -0.9544204496477128      0.2292879705734585       -1.6874086527452081
1.299412561984869         0.48873012610048944      0.12401628988438684      0.09225905244839963      1.7185453316477373       -0.23637517275422043     0.9744475923414165       0.9804729120605411       -0.9804729120605411      -0.9744475923414165      0.23637517275422043      -1.7185453316477373
1.3171581884928574        0.4951692191617838       0.1252521765199269       0.09336565943475608      1.739557605622372        -0.24111927102476322     0.988044546502811        0.9926323301443241       -0.9926323301443241      -0.988044546502811       0.24111927102476322      -1.739557605622372
1.3278572435454454        0.4990514270466683       0.12599730767359163      0.09403284630828106      1.7522261623472346       -0.2439795458394381      0.9962423163056857       0.9999633918809874       -0.9999633918809874      -0.9962423163056857      0.2439795458394381       -1.7522261623472346
1.3790274413331267        0.517546293339278        0.1294106184567277       0.09713691309564818      1.811872094431331        -0.25831307892578104     1.0354083836909656       1.0347767896661466       -1.0347767896661466      -1.0354083836909656      0.25831307892578104      -1.811872094431331
1.4137098695592938        0.5301632754739313       0.1316635792344332       0.09920006475294571      1.8521175476629441       -0.26853555423278086     1.0621360722563455       1.0585170296393795       -1.0585170296393795      -1.0621360722563455      0.26853555423278086      -1.8521175476629441
1.4189865939164783        0.5320756253760426       0.13199941380272454      0.09951564178560574      1.8582120593026805       -0.27009044220148937     1.0662155764863341       1.062086925017836        -1.062086925017836       -1.0662155764863341      0.27009044220148937      -1.8582120593026805
1.4231220856627567        0.5335743785230413       0.13226261517374033      0.0997629668542543       1.8629884699843204       -0.2713090441078454      1.0694127789418788       1.064884735150287        -1.064884735150287       -1.0694127789418788      0.2713090441078454       -1.8629884699843204
1.4506209333811024        0.5434359576514523       0.13405332039523626      0.10136564430826611      1.894494453721677        -0.27924937688413226     1.09017453135026         1.083569299255549        -1.083569299255549       -1.09017453135026        0.27924937688413226      -1.894494453721677
1.4523389896430472        0.5440451499225802       0.13416526666409073      0.10146576126507073      1.8964491448977148       -0.2797314547926061      1.0914575449131712       1.0847230547771498       -1.0847230547771498      -1.0914575449131712      0.2797314547926061       -1.8964491448977148
1.4702338633297565        0.5505212973613848       0.13521942669413528      0.1024804797095258       1.9166227936432776       -0.28546239580226135     1.1053062334784667       1.0967789559670722       -1.0967789559670722      -1.1053062334784667      0.28546239580226135      -1.9166227936432776
1.4852592822090935        0.5559608172562556       0.1361056499512309       0.10333993332897934      1.9335983176821205       -0.29024495134290185     1.1169644179747353       1.1068788510502865       -1.1068788510502865      -1.1169644179747353      0.29024495134290185      -1.9335983176821205
1.518386927780068         0.5679537266453805       0.1380595715153206       0.10523483390503588      1.9710255034568653       -0.3007894031246561      1.1426680743649418       1.1291468322165792       -1.1291468322165792      -1.1426680743649418      0.3007894031246561       -1.9710255034568653
1.5223873782031923        0.5694098191828575       0.138274037789488        0.10545141476057542      1.97544741077648         -0.30219186595494985     1.145803184039552        1.1318360926918773       -1.1318360926918773      -1.145803184039552       0.30219186595494985      -1.97544741077648
1.5280071771337185        0.5714553256682171       0.1385753181981222       0.10575566571524239      1.9816592687917693       -0.3041620338810987      1.1502073596030367       1.1356139430698313       -1.1356139430698313      -1.1502073596030367      0.3041620338810987       -1.9816592687917693
1.5700579829871328        0.5863997847040066       0.14089843301058425      0.1081440955782281       2.028071250752677        -0.31752788806334825     1.182680652689172        1.1629184861268533       -1.1629184861268533      -1.182680652689172       0.31752788806334825      -2.028071250752677
1.613651769897378         0.6021060339133906       0.14318267670627813      0.11050816597590687      2.0757927618492418       -0.3326313738043194      1.216696701611574        1.1917274340419877       -1.1917274340419877      -1.216696701611574       0.3326313738043194       -2.0757927618492418
1.634750309118571         0.6095022901646043       0.14421853127737153      0.11164377079365753      2.0982352573359524       -0.3397739033224645      1.2329240696717239       1.205085090986693        -1.205085090986693       -1.2329240696717239      0.3397739033224645       -2.0982352573359524
1.6470384637805529        0.6138099979059664       0.1448218309202269       0.11230516670780659      2.1113061554038395       -0.34393383622002616     1.2423751698824779       1.212864821741387        -1.212864821741387       -1.2423751698824779      0.34393383622002616      -2.1113061554038395
1.6817030058842142        0.6259703031182022       0.14646221197533726      0.11410655096696964      2.1477534460302943       -0.35612776644251476     1.2689801741782714       1.2349010382945376       -1.2349010382945376      -1.2689801741782714      0.35612776644251476      -2.1477534460302943
1.6888346088805064        0.6243126399027886       0.14678810618455215      0.1144548520118785       2.1468090064067473       -0.3504415532044073      1.2660803692994347       1.2311701903117194       -1.2311701903117194      -1.2660803692994347      0.3504415532044073       -2.1468090064067473
1.6938266268466093        0.623135931245206        0.14695168154476085      0.11470304888848126      2.145939102678619        -0.3466046223022049      1.2642290134100544       1.2283147115707693       -1.2283147115707693      -1.2642290134100544      0.3466046223022049       -2.145939102678619
1.7087674988421186        0.619614507149381        0.1475442153891896       0.11546183945853153      2.1437090183004566       -0.3347490102970676      1.2584437259653192       1.2200143026322046       -1.2200143026322046      -1.2584437259653192      0.3347490102970676       -2.1437090183004566
1.73138325412107          0.614284184688382        0.14844112424592332      0.11661040842059678      2.14033337579692         -0.31680336295660705     1.2496866303213807       1.2074501084321465       -1.2074501084321465      -1.2496866303213807      0.31680336295660705      -2.14033337579692
1.7791729822365951        0.602991479199454        0.15066241954917026      0.11900967475037522      2.134008916047918        -0.2779570007498962      1.2300343987528972       1.1819315180449175       -1.1819315180449175      -1.2300343987528972      0.2779570007498962       -2.134008916047918
1.815105215212491         0.5936764225905447       0.1520238282113651       0.12058037248068777      2.1257458197379346       -0.2489598706242433      1.2136028504697447       1.1611028398924337       -1.1611028398924337      -1.2136028504697447      0.2489598706242433       -2.1257458197379346
1.8174653200433517        0.593114407170678        0.1521067108178937       0.12068760815200766      2.1252993794030663       -0.24715824927964447     1.212659114495705        1.1597985141870066       -1.1597985141870066      -1.212659114495705       0.24715824927964447      -2.1252993794030663
1.8587318689207941        0.5838335632246351       0.1533224083878536       0.1227103376394727       2.118475702170721        -0.2168585507278188      1.1985412518435998       1.13679300105494         -1.13679300105494        -1.1985412518435998      0.2168585507278188       -2.118475702170721
1.8912255090692378        0.5762005431003672       0.1545910201139697       0.124207695756338        2.1130049295679942       -0.19179724283347369     1.185458808884177        1.1193433635172914       -1.1193433635172914      -1.185458808884177       0.19179724283347369      -2.1130049295679942
1.891274365761126         0.5761887789344408       0.1545921220850507       0.12420977516091569      2.1129930247676953       -0.191762090970067       1.185440292257392        1.1193148234803707       -1.1193148234803707      -1.185440292257392       0.191762090970067        -2.1129930247676953
1.9085531988134           0.5720282217786598       0.15498184913371466      0.12494518484907582      2.1087827303547657       -0.17933015675987257     1.1788916355524788       1.10922125156216         -1.10922125156216        -1.1788916355524788      0.17933015675987257      -2.1087827303547657
1.9095609317040605        0.571795732083991        0.1550160424338421       0.12498682550860785      2.1085868935039387       -0.1785960348320247      1.178490638900887        1.1086922894350768       -1.1086922894350768      -1.178490638900887       0.1785960348320247       -2.1085868935039387
1.9463425817548308        0.5633099967577295       0.1562640775143915       0.12650668476991023      2.101438965138273        -0.15180102189264402     1.1638545000519251       1.0893854869789925       -1.0893854869789925      -1.1638545000519251      0.15180102189264402      -2.101438965138273
1.9966992858679267        0.5508613450189682       0.15744774520217322      0.12866567453377545      2.088728623779557        -0.11471675629631516     1.144042152566518        1.0594032275093541       -1.0594032275093541      -1.144042152566518       0.11471675629631516      -2.088728623779557
2.0032780359018796        0.5492350160228306       0.15760238307965813      0.12894773139656046      2.0870681068708765       -0.10987195722044527     1.1414538083929282       1.0554862556983933       -1.0554862556983933      -1.1414538083929282      0.10987195722044527      -2.0870681068708765
2.018412493779846         0.5457710963981857       0.15779415599216096      0.12951154527786812      2.0829708418843254       -0.10011354370841635     1.1362059059313605       1.0468784796613817       -1.0468784796613817      -1.1362059059313605      0.10011354370841635      -2.0829708418843254