% Model:              Prism_potential.mph
% Version:            COMSOL 6.2.0.339
% Date:               May 6 2024, 20:11
% Dimension:          1
% Nodes:              570
% Expressions:        11
% Description:        Line graph
% Arc length (m)          Magnetic scalar potential Magnetic scalar potential Magnetic scalar potential Magnetic scalar potential Magnetic scalar potential Magnetic scalar potential Magnetic scalar potential Magnetic scalar potential Magnetic scalar potential Magnetic scalar potential Magnetic scalar potential
0                         -2.1477070319909345E-6   1.721308767741481E-5     1.480599881648688E-5     1.0656784423350625E-4    1.1515867236227206E-4    3.289318169281681E-6     -1.1880146298182364E-5   1.1880146298182364E-5    -3.289318169281681E-6    -1.1515867236227206E-4   -1.0656784423350625E-4
0.01169720456618362       -1.2479681134494814E-6   1.884010916298703E-5     0.001328048693338186     0.0053662191646141055    0.005371211037068649     0.005253178509636451     -0.005258170382091112    0.005258170382091112     -0.005253178509636451    -0.005371211037068649    -0.0053662191646141055
0.014381202963893964      -1.1447128244674904E-6   1.868365806602162E-5     0.0016292545596170067    0.006570779787016461     0.0065753586383150665    0.006458677838620594     -0.0064632566899193175   0.0064632566899193175    -0.006458677838620594    -0.0065753586383150665   -0.006570779787016461
0.09597414448657737       1.994224480617642E-6     1.392758018970439E-5     0.01078584446464173      0.043189149048096745     0.04318117215017464      0.043105583566958594     -0.04309760666903674     0.04309760666903674      -0.043105583566958594    -0.04318117215017464     -0.043189149048096745
0.1394335660722872        -1.437805698501228E-5    2.0108517750245256E-5    0.01568142169056929      0.06275725620155738      0.06281476842949782      0.06263660509505595      -0.06269411732299668     0.06269411732299668      -0.06263660509505595     -0.06281476842949782     -0.06275725620155738
0.15166683275859194       -1.4166987407876084E-5   2.190555480188522E-5     0.017058382821803223     0.06827091397680231      0.06832758192643423      0.0681394806479911       -0.06819614859762324     0.06819614859762324      -0.0681394806479911      -0.06832758192643423     -0.06827091397680231
0.19679775740122724       5.769144433096429E-6     2.6412588988739254E-5    0.02214485875666114      0.0886702110824764       0.08864713450474448      0.08851173554854438      -0.08848865897081246     0.08848865897081246      -0.08851173554854438     -0.08864713450474448     -0.0886702110824764
0.21887400014994707       -2.273277370132623E-6    3.151793903077935E-5     0.02465252773140275      0.09870011818796248      0.0987092112974435       0.09851101055377826      -0.09852010366325926     0.09852010366325926      -0.09851101055377826     -0.0987092112974435      -0.09870011818796248
0.22081746624772372       -9.081712959086493E-7    3.2354920417245955E-5    0.024872550781587083     0.09958545154500764      0.09958908423019178      0.09939132202250461      -0.09939495470768872     0.09939495470768872      -0.09939132202250461     -0.09958908423019178     -0.09958545154500764
0.23650809433622277       1.0113050909358288E-5    3.911231313278533E-5     0.026648913052731912     0.10673321525214402      0.10669276304850711      0.10649854137334772      -0.10645808916971086     0.10645808916971086      -0.10649854137334772     -0.10669276304850711     -0.10673321525214402
0.23827962537747324       1.1168758813292568E-5    3.928152969605216E-5     0.02685036835851743      0.10754165554078376      0.10749698050553111      0.10730596636260786      -0.10726129132735528     0.10726129132735528      -0.10730596636260786     -0.10749698050553111     -0.10754165554078376
0.2567821462626225        2.2194959927653328E-5    4.104888963674374E-5     0.028954441567468736     0.11598530285863973      0.11589652301892966      0.11573900952081972      -0.11565022968110968     0.11565022968110968      -0.11573900952081972     -0.11589652301892966     -0.11598530285863973
0.30026596002821476       -2.5222559106307676E-6   2.0303753340657812E-5    0.033884157925815485     0.13559249845146196      0.13560258747510526      0.1354706759314183       -0.13548076495506148     0.13548076495506148      -0.1354706759314183      -0.13560258747510526     -0.13559249845146196
0.308038964251576         3.33838545184541E-6      1.0777210136665564E-5    0.034771156313321214     0.13912363365459782      0.1391102801127912       0.13905897039377815      -0.13904561685197142     0.13904561685197142      -0.13905897039377815     -0.1391102801127912      -0.13912363365459782
0.3355330141394663        2.109603552134299E-5     -1.31245089535683E-5     0.03790724055879914      0.15163178077937778      0.15154739663729305      0.15171052783309963      -0.1516261436910148      0.1516261436910148       -0.15171052783309963     -0.15154739663729305     -0.15163178077937778
0.37549469075408076       6.082176807066303E-6     2.014142133742198E-5     0.04252834592608183      0.17018597232195293      0.17016164361472538      0.17006512379392882      -0.17004079508670117     0.17004079508670117      -0.17006512379392882     -0.17016164361472538     -0.17018597232195293
0.3984449832305269        -3.5876695151041554E-6   2.09208820236206E-5      0.04518962865747411      0.18081410193693628      0.18082845261499747      0.180688576644795        -0.18070292732285606     0.18070292732285606      -0.180688576644795       -0.18082845261499747     -0.18081410193693628
0.402626094359418         -4.6733694224069047E-7   2.24771988456135E-5      0.045677546596280046     0.18277668330777172      0.18277855265554144      0.18264182011469848      -0.18264368946246806     0.18264368946246806      -0.18264182011469848     -0.18277855265554144     -0.18277668330777172
0.41450490747409724       8.397734170688701E-6     2.6898797819134568E-5    0.04706375371484384      0.18835250672117326      0.1883189157844913       0.1881911139342589       -0.18815752299757682     0.18815752299757682      -0.1881911139342589      -0.1883189157844913      -0.18835250672117326
0.47093732578471487       3.91803464027366E-5      2.2289434675260212E-5    0.053596000778931945     0.2145292321125581       0.21437251072694785      0.21439549550450704      -0.2142387741188967      0.2142387741188967       -0.21439549550450704     -0.21437251072694785     -0.2145292321125581
0.47107841703182696       3.928897780296469E-5     2.2164090835148105E-5    0.0536123727517097       0.21459456123494924      0.2144374053237381       0.21446157668993887      -0.21430442077872763     0.21430442077872763      -0.21446157668993887     -0.2144374053237381      -0.21459456123494924
0.4717751539359326        3.9825421466428834E-5    2.1545117788301856E-5    0.053693220840168386     0.2149171695569704       0.21475786787110537      0.2147878988502411       -0.214628597164376       0.214628597164376        -0.2147878988502411      -0.21475786787110537     -0.2149171695569704
0.47293770492082354       3.6771335602142584E-5    2.0806564932573517E-5    0.05383102080295809      0.2154600455778334       0.21531296023542557      0.21533520618823848      -0.21518812084583055     0.21518812084583055      -0.21533520618823848     -0.21531296023542557     -0.2154600455778334
0.4992685961451767        -1.8760152688427375E-5   1.39992611204935E-5      0.05695020857614846      0.22780531178257757      0.22788035239333193      0.22772131621585506      -0.22779635682660937     0.22779635682660937      -0.22772131621585506     -0.22788035239333193     -0.22780531178257757
0.5189179813141451        1.3549941927904776E-5    1.4747817080616125E-5    0.05926182411383461      0.23711863979043518      0.23706444002272414      0.23703015288795193      -0.2369759531202409      0.2369759531202409       -0.23703015288795193     -0.23706444002272414     -0.23711863979043518
0.5398962238341656        4.8045117979352665E-5    1.5546996715820518E-5    0.06172977061422752      0.24706181368301533      0.24686963321109845      0.24696853170272084      -0.246776351230804       0.246776351230804        -0.24696853170272084     -0.24686963321109845     -0.24706181368301533
0.5881519415089609        -5.068596801007484E-6    2.027298425030929E-5     0.06754734642841762      0.2702400674728185       0.27026034186002296      0.2701184295673171       -0.27013870395452166     0.27013870395452166      -0.2701184295673171      -0.27026034186002296     -0.2702400674728185
0.5931262839005517        -4.830730771983229E-6    1.809099733085344E-5     0.06814801643445285      0.2726366772682591       0.27265600019134745      0.27252813128427444      -0.2725474542073629      0.2725474542073629       -0.27252813128427444     -0.27265600019134745     -0.2726366772682591
0.6000922090598266        -4.497630067272249E-6    1.503540598170414E-5     0.06898917733132559      0.2759928202831121       0.2760108108033815       0.27590260784722226      -0.27592059836749194     0.27592059836749194      -0.27590260784722226     -0.2760108108033815      -0.2759928202831121
0.6011808829316788        -2.6041972262341007E-6   1.4989020419671733E-5    0.0691212349551878       0.27652469848755684      0.27653511527646213      0.27643476436503917      -0.27644518115394473     0.27644518115394473      -0.27643476436503917     -0.27653511527646213     -0.27652469848755684
0.6057797046961367        1.3286705933809667E-6    1.461729753050975E-5     0.0696866459158094       0.27879309289701504      0.27878777821464185      0.2787053891118324       -0.27870007442945943     0.27870007442945943      -0.2787053891118324      -0.27878777821464185     -0.27879309289701504
0.6334022571172364        2.0939339365561678E-5    1.1937978923102794E-5    0.07307533320032944      0.29237902541681726      0.29229526805935535      0.29230739754327917      -0.2922236401858173      0.2922236401858173       -0.29230739754327917     -0.29229526805935535     -0.29237902541681726
0.7043226229116146        -3.84601266954982E-6     3.6848735584706777E-5    0.08174551741562122      0.32708492384389887      0.32710030789457745      0.3268638314303913       -0.3268792154810698      0.3268792154810698       -0.3268638314303913      -0.32710030789457745     -0.32708492384389887
0.7334941781998832        -2.6279928234941693E-5   1.9597229710801808E-5    0.08534912168609401      0.3414027185770375       0.3415078382899777       0.34128513519877346      -0.3413902549117133      0.3413902549117133       -0.34128513519877346     -0.3415078382899777      -0.3414027185770375
0.7406197206108089        -3.126522376112377E-5    2.3740877571023404E-5    0.0862519181158159       0.34501636464845337      0.3451414255434983       0.34487391938302797      -0.3449989802780726      0.3449989802780726       -0.34487391938302797     -0.3451414255434983      -0.34501636464845337
0.7974491609334005        -3.4190738225574986E-6   2.1378178502466563E-5    0.09344946580396686      0.3738551596037286       0.3738688358990194       0.37372689053271446      -0.3737405668280049      0.3737405668280049       -0.37372689053271446     -0.3738688358990194      -0.3738551596037286
0.8047605823168189        1.6348716961396732E-7    2.107420421740649E-5     0.09437547006824609      0.3775654298599747       0.37756477591129683      0.3774389846346709       -0.37743833068599264     0.37743833068599264      -0.3774389846346709      -0.37756477591129683     -0.3775654298599747
0.8192483127125944        -1.3864857239078484E-5   1.8729936984184783E-5    0.0962484727019774       0.38502235090438286      0.3850778103333398       0.38490997128247845      -0.384965430711435       0.384965430711435        -0.38490997128247845     -0.3850778103333398      -0.38502235090438286
0.8670825591019499        -2.3879000332405273E-5   1.126723852542877E-5     0.1024245292245961       0.40968416061329477      0.409779676614625        0.40961655718214274      -0.4097120731834727      0.4097120731834727       -0.40961655718214274     -0.409779676614625       -0.40968416061329477
0.8672517619876339        -2.387115455483877E-5    1.1209088436746506E-5    0.10244632419675116      0.40977118174320415      0.409866666361424        0.4097039272125842       -0.4097994118308039      0.4097994118308039       -0.4097039272125842      -0.409866666361424       -0.40977118174320415
0.8673105551719982        -2.381179926291832E-5    1.1130826287238298E-5    0.10245417789606816      0.40980248046460743      0.40989772766165966      0.40973569550688455      -0.40983094270393655     0.40983094270393655      -0.40973569550688455     -0.40989772766165966     -0.40980248046460743
0.9092094421264906        2.741990174979776E-5     2.4338441648726755E-5    0.10795782130951684      0.43195914036651195      0.43184946075951336      0.4318131097166202       -0.43170343010962137     0.43170343010962137      -0.4318131097166202      -0.43184946075951336     -0.43195914036651195
0.9257604393596506        3.2856325975224947E-6    1.1708600794662315E-5    0.11016640411146784      0.4407073135134492       0.44069417098305974      0.44063706190868185      -0.44062391937829215     0.44062391937829215      -0.44063706190868185     -0.44069417098305974     -0.4407073135134492
0.9595491792350551        -2.8810037549036136E-5   -1.3471551557718911E-5   0.11467110239973258      0.4585863748691578       0.45870161501935464      0.4586672041785047       -0.4587824443287013      0.4587824443287013       -0.4586672041785047      -0.45870161501935464     -0.4585863748691578
0.9805895409014431        7.554692864991837E-6     -5.970791675287933E-6    0.1175465367532209       0.4701833440235865       0.47015312525212716      0.4702191687736387       -0.4701889500021792      0.4701889500021792       -0.4702191687736387      -0.47015312525212716     -0.4701833440235865
0.9979118279247136        3.7493355885312744E-5    2.0449740178443351E-7    0.11991384868337973      0.47973099493749377      0.4795810215139532       0.47972976795308353      -0.4795797945295428      0.4795797945295428       -0.47972976795308353     -0.4795810215139532      -0.47973099493749377
1.0413332379612834        2.1083808367475146E-6    2.046825987254302E-5     0.12588656158293757      0.5036118678730402       0.5036034343496939       0.5034890583138056       -0.5034806247904591      0.5034806247904591       -0.5034890583138056      -0.5036034343496939      -0.5036118678730402
1.0445292841460299        4.2724012710013875E-6    1.699104908944426E-5     0.12633541601555132      0.5054011820120144       0.505384092406931        0.5052992357174784       -0.5052821461123949      0.5052821461123949       -0.5052992357174784      -0.505384092406931       -0.5054011820120144
1.051714112297236         9.137197972006346E-6     9.174152687471638E-6     0.12734445711721887      0.5094236253228808       0.5093870765309934       0.5093685804067565       -0.509332031614869       0.509332031614869        -0.5093685804067565      -0.5093870765309934      -0.5094236253228808
1.0953784607878698        4.089352389417681E-5     1.122888551765254E-6     0.1334958778678177       0.5340686671847135       0.5339050930891374       0.5340619298534033       -0.5338983557578271      0.5338983557578271       -0.5340619298534033      -0.5339050930891374      -0.5340686671847135
1.1222227565630014        1.065993193444378E-5     -4.599383627924662E-6    0.13730052575364715      0.5492096247275727       0.5491669849998356       0.5492372210293407       -0.5491945813016035      0.5491945813016035       -0.5492372210293407      -0.5491669849998356      -0.5492096247275727
1.1682511779262812        -2.294093375641024E-5    2.8904873269459193E-5    0.1440704946905793       0.5763228115146117       0.5764145752496381       0.5761493822749955       -0.5762411460100215      0.5762411460100215       -0.5761493822749955      -0.5764145752496381      -0.5763228115146117
1.1750208575212242        -2.3263317865576617E-5   3.334028762518493E-5     0.14506430843894322      0.5803107279829162       0.5804037812543792       0.5801106862571654       -0.5802037395286282      0.5802037395286282       -0.5801106862571654      -0.5804037812543792      -0.5803107279829162
1.1814176571954742        -2.356794477377408E-5    3.753139544763974E-5     0.14600338204983443      0.5840789864961321       0.5841732582752279       0.5838537981234466       -0.5839480699025423      0.5839480699025423       -0.5838537981234466      -0.5841732582752279      -0.5840789864961321
1.1983745879621304        8.864124648552143E-6     1.2068719663919014E-5    0.14848317747045736      0.5939866442901172       0.5939511877915238       0.5939142319721342       -0.5938787754735404      0.5938787754735404       -0.5939142319721342      -0.5939511877915238      -0.5939866442901172
1.2081943554264096        1.102103303561217E-5     2.218877991754832E-5     0.14993933684943686      0.5998459558035703       0.5998018716714283       0.5997128231240654       -0.5996687389919233      0.5996687389919233       -0.5997128231240654      -0.5998018716714283      -0.5998459558035703
1.2159429012956615        1.272299834524876E-5     3.017427971273648E-5     0.15108835771800708      0.604469399707856        0.6044185077144755       0.60428835402958         -0.6042374620361994      0.6042374620361994       -0.60428835402958        -0.6044185077144755      -0.604469399707856
1.2596004869598714        -1.7794692923837462E-5   2.0844030433974682E-5    0.15771466326723088      0.6308855957743766       0.6309567745460726       0.6307605315917733       -0.6308317103634691      0.6308317103634691       -0.6307605315917733      -0.6309567745460726      -0.6308855957743766
1.2629121934553726        -1.376018885514748E-5    1.4214814437476901E-5    0.1582290058119441       0.6329311473133774       0.6329861880687986       0.632845858426753        -0.6329008991821741      0.6329008991821741       -0.632845858426753       -0.6329861880687986      -0.6329311473133774
1.2745264193612589        3.8890368540323884E-7    -9.033988639366858E-6    0.16003281617841913      0.640104940555128        0.6401033849403872       0.6401591444869649       -0.6401575888722235      0.6401575888722235       -0.6401591444869649      -0.6401033849403872      -0.640104940555128
1.3215020764296654        -1.7284200416272885E-5   4.73486348894301E-5      0.16744867581972978      0.6699021807827538       0.6699713175844194       0.6696180889734177       -0.6696872257750832      0.6696872257750832       -0.6696180889734177      -0.6699713175844194      -0.6699021807827538
1.3339880558860937        -2.1320225697542164E-5   3.4347031093795184E-5    0.16941195990266572      0.6777082402525484       0.677793521155339        0.677502158065986        -0.6775874389687767      0.6775874389687767       -0.677502158065986       -0.677793521155339       -0.6777082402525484
1.3350349377943935        -2.1658624608348036E-5   3.325691687087627E-5     0.1695765706642364       0.6783627361583408       0.6784493706567746       0.6781631946571158       -0.6782498291555499      0.6782498291555499       -0.6781631946571158      -0.6784493706567746      -0.6783627361583408
1.3404032894530333        -7.603014977858812E-6    2.872698980022374E-5     0.17041355755449814      0.6817252051574365       0.6817556172173485       0.6815528432186355       -0.6815832552785477      0.6815832552785477       -0.6815528432186355      -0.6817556172173485      -0.6817252051574365
1.349545772381883         1.5943215535707913E-5    1.5240846557124446E-5    0.1718976362478293       0.6876681539620589       0.6876043810999166       0.6875767088827166       -0.6875129360205744      0.6875129360205744       -0.6875767088827166      -0.6876043810999166      -0.6876681539620589
1.3698187919463694        5.667171495168976E-6     -9.886590962212075E-6    0.175197399750896        0.7007712735736866       0.7007486048877064       0.7008305931194603       -0.7008079244334802      0.7008079244334802       -0.7008305931194603      -0.7007486048877064      -0.7007712735736866
1.3808952843775115        3.954160984884951E-6     -3.0636908280746306E-6   0.17699659865353795      0.7079851118636364       0.7079692952196974       0.7080034940086053       -0.7079876773646663      0.7079876773646663       -0.7080034940086053      -0.7079692952196974      -0.7079851118636364
1.4001991994767518        9.687565655535951E-7     8.827138849171624E-6     0.18013221067865864      0.7205572616443122       0.7205533866180505       0.7205042988112175       -0.7205004237849558      0.7205004237849558       -0.7205042988112175      -0.7205533866180505      -0.7205572616443122
1.4231547246398526        -2.762614023244528E-5    1.6224338199433315E-5    0.183941220521501        0.7357583028201363       0.7358688073810666       0.7356609567909401       -0.7357714613518703      0.7357714613518703       -0.7356609567909401      -0.7358688073810666      -0.7357583028201363
1.4917169127522674        7.449146407146294E-5     7.756501380681402E-5     0.19585751933151874      0.7838117552956372       0.7835137894393519       0.7833463652127969       -0.7830483993565112      0.7830483993565112       -0.7833463652127969      -0.7835137894393519      -0.7838117552956372
1.498446646859186         8.451483618838001E-5     8.358591903375264E-5     0.19702716581944182      0.7885284507072441       0.7881903913624911       0.7880269351930421       -0.787688875848289       0.787688875848289        -0.7880269351930421      -0.7881903913624911      -0.7885284507072441
1.514391345923328         5.9222396537406816E-5    6.525703230035167E-5     0.19978712062470227      0.7994626983887838       0.7992258088026347       0.7990711561949824       -0.7988342666088328      0.7988342666088328       -0.7990711561949824      -0.7992258088026347      -0.7994626983887838
1.5430306729996879        4.977388289814611E-6     2.598776924587706E-5     0.20472214277651088      0.8189764891903596       0.8189565796372008       0.8188205625748849       -0.8188006530217259      0.8188006530217259       -0.8188205625748849      -0.8189565796372008      -0.8189764891903596
1.5534665917531554        -1.4789015346126412E-5   1.1678395368048839E-5    0.20652042141921506      0.8260871428322709       0.8261462988936559       0.8260170724600632       -0.8260762285214479      0.8260762285214479       -0.8260170724600632      -0.8261462988936559      -0.8260871428322709
1.5578330337019273        -8.771266950474883E-6    9.993489172738907E-6     0.20727900751292905      0.8291284679853324       0.8291635530531347       0.8290685070502966       -0.8291035921180985      0.8291035921180985       -0.8290685070502966      -0.8291635530531347      -0.8291284679853324
1.5632980911695356        -4.1829773222476615E-6   3.3055801598624217E-6    0.2082972485534969       0.8331905449998215       0.8332072769091109       0.8331707115188628       -0.833187443428152       0.833187443428152        -0.8331707115188628      -0.8332072769091109      -0.8331905449998215
1.5644613272636543        -6.812978134641481E-6    1.852673285533766E-6     0.208512156005577        0.834040556085894        0.8340678079984332       0.8340294400461815       -0.8340566919587201      0.8340566919587201       -0.8340294400461815      -0.8340678079984332      -0.834040556085894
1.5878021495085626        -5.9585052330407714E-5   -2.7300515188887278E-5   0.21282436456191994      0.8510963865974512       0.8513347268067732       0.8512601896885851       -0.8514985298979068      0.8514985298979068       -0.8512601896885851      -0.8513347268067732      -0.8510963865974512
1.6302697813763483        -3.770120867768148E-5    8.332030669916043E-6     0.22052234643543123      0.8820389794163784       0.8821897842510895       0.8819889872323592       -0.8821397920670702      0.8821397920670702       -0.8819889872323592      -0.8821897842510895      -0.8820389794163784
1.6359070260717214        -4.0753455327845775E-5   8.099866805269616E-6     0.2216234724843827       0.88643668262729         0.8865996964486018       0.8863880834264586       -0.8865510972477701      0.8865510972477701       -0.8863880834264586      -0.8865996964486018      -0.88643668262729
1.6837784588664584        -6.667310726458573E-5    6.128333291228159E-6     0.23097422528994768      0.9237819399451341       0.924048632374193        0.9237451699453875       -0.9240118623744458      0.9240118623744458       -0.9237451699453875      -0.924048632374193       -0.9237819399451341
1.6953103381435746        -9.734383460382345E-5    4.606143086413245E-6     0.23317125705067568      0.9325041589627533       0.9328935343011691       0.9324765221042354       -0.9328658974426507      0.9328658974426507       -0.9324765221042354      -0.9328935343011691      -0.9325041589627533
1.6967938282896595        -9.094647876666678E-5    4.0732359422418046E-6    0.2334582485666807       0.9336633210170152       0.9340271069320824       0.9336388816013623       -0.934002667516429       0.934002667516429        -0.9336388816013623      -0.9340271069320824      -0.9336633210170152
1.7027065290507701        -1.6157553790867318E-5   1.5089514180470043E-5    0.23459159538389623      0.9383793349705434       0.9384439651857075       0.9382887978854613       -0.9383534281006246      0.9383534281006246       -0.9382887978854613      -0.9384439651857075      -0.9383793349705434
1.7144230553890925        3.264983154347976E-5     2.644386986973968E-5     0.23697691379626748      0.948052286457765        0.9479216871315916       0.9478936232385471       -0.9477630239123731      0.9477630239123731       -0.9478936232385471      -0.9479216871315916      -0.948052286457765
1.7263969828623194        5.3403856562189847E-5    2.327466208102845E-5     0.239380305315277        0.9576978529604744       0.9574842375342261       0.9575582049879886       -0.9573445895617398      0.9573445895617398       -0.9575582049879886      -0.9574842375342261      -0.9576978529604744
1.7633301525137735        -4.700776615614508E-5    -5.866387038512826E-6    0.24698148557299615      0.9878143275985556       0.9880023586631808       0.9878495259207871       -0.9880375569854116      0.9880375569854116       -0.9878495259207871      -0.9880023586631808      -0.9878143275985556
1.8057855070707558        -1.4711791425220882E-4   -3.192407032269191E-5    0.2556697803206216       1.0222891132430123       1.0228775849000218       1.022480657664949        -1.0230691293219578      1.0230691293219578       -1.022480657664949       -1.0228775849000218      -1.0222891132430123
1.8166444423283326        -1.3561527406688841E-4   -2.189657973716559E-5    0.25793763010146387      1.0314136001185088       1.0319560612147771       1.0315449795969323       -1.0320874406932         1.0320874406932          -1.0315449795969323      -1.0319560612147771      -1.0314136001185088
1.8467616246249754        -3.707448155457617E-5    8.781447587818177E-6     0.26418469532329325      1.0566909766728259       1.056839274599045        1.0566382879872993       -1.0567865859135177      1.0567865859135177       -1.0566382879872993      -1.056839274599045       -1.0566909766728259
1.8546904415550016        -9.21953025565241E-6     -2.3187339677847082E-5   0.2659310778206686       1.0636363102031283       1.0636731883241515       1.0637754342411958       -1.0638123123622185      1.0638123123622185       -1.0637754342411958      -1.0636731883241515      -1.0636363102031283
1.8673656243513215        -2.266134020911521E-5    -1.7628541764385525E-5   0.2687719941323773       1.0749897682237965       1.0750804135846337       1.0750955394743835       -1.07518618483522        1.07518618483522         -1.0750955394743835      -1.0750804135846337      -1.0749897682237965
1.908546286506173         -6.633271310671528E-5    4.315511384070034E-7     0.2780019055839627       1.1118762515630514       1.1121415824154788       1.111873662256221        -1.1121389931086485      1.1121389931086485       -1.111873662256221       -1.1121415824154788      -1.1118762515630514
1.9177799513733762        -3.237635081909337E-5    3.40696758266896E-5      0.2800404919343463       1.1201994240632258       1.1203289294665024       1.119995006008266        -1.1201245114115423      1.1201245114115423       -1.119995006008266       -1.1203289294665024      -1.1201994240632258
1.9459397678907053        -8.83852259637222E-5     -3.347450068287485E-5    0.2866235016975284       1.146216812836136        1.1465703537399912       1.1464176598402338       -1.146771200744089       1.146771200744089        -1.1464176598402338      -1.1465703537399912      -1.146216812836136
1.9519260569498496        -5.146041063560118E-5    -2.8309397890079625E-5   0.28800890497532694      1.1518477708863646       1.1520536125289076       1.1520176272737057       -1.152223468916248       1.152223468916248        -1.1520176272737057      -1.1520536125289076      -1.1518477708863646
1.9647085883856157        2.738519939563715E-5     -1.7280346642211623E-5   0.29096715854021643      1.1638715635197288       1.1637620227221466       1.1639752455995824       -1.1638657048020002      1.1638657048020002       -1.1639752455995824      -1.1637620227221466      -1.1638715635197288
2.0042657005886264        6.455541613865711E-5     9.615411705933194E-5     0.30037448845843573      1.2019155270171968       1.2016573053526423       1.2013386023148414       -1.201080380650287       1.201080380650287        -1.2013386023148414      -1.2016573053526423      -1.2019155270171968
2.0095332313614307        9.268713785505505E-5     1.0612792269241371E-4    0.30170864274674297      1.2073383290307578       1.2069675804793378       1.206701561494604        -1.206330812943184       1.206330812943184        -1.206701561494604       -1.2069675804793378      -1.2073383290307578