% Model:              Prism_potential.mph
% Version:            COMSOL 6.2.0.339
% Date:               May 6 2024, 20:12
% Dimension:          1
% Nodes:              738
% Expressions:        11
% Description:        Line graph
% Arc length (m)          Magnetic scalar potential Magnetic scalar potential Magnetic scalar potential Magnetic scalar potential Magnetic scalar potential Magnetic scalar potential Magnetic scalar potential Magnetic scalar potential Magnetic scalar potential Magnetic scalar potential Magnetic scalar potential
1.8798168317096797E-15    -2.1477070319909764E-6   1.7213087679596574E-5    1.4805998816628274E-5    1.0656784424061742E-4    1.1515867236938345E-4    3.289318163302306E-6     -1.1880146292202556E-5   1.1880146292202556E-5    -3.289318163302306E-6    -1.1515867236938345E-4   -1.0656784424061742E-4
0.020044969387628064      -0.00768846375847521     -0.002150913958767683    0.0015192731023055185    -0.015752576984032082    0.01500127804986949      -0.0028470932314257438   -0.02790676180247598     0.02790676180247598      0.0028470932314257438    -0.01500127804986949     0.015752576984032082
0.08493544419473908       -0.0325705668862941      -0.009175868961258795    0.00638887984744225      -0.06711322126659613     0.06316904627858073      -0.01205800749904332     -0.11822426004613389     0.11822426004613389      0.01205800749904332      -0.06316904627858073     0.06711322126659613
0.10382113474406311       -0.039808416514394686    -0.011216044122707252    0.007812231850685436     -0.08201603799416993     0.07721762806340934      -0.014719773257926241    -0.1445138927996532      0.1445138927996532       0.014719773257926241     -0.07721762806340934     0.08201603799416993
0.10510643786776491       -0.04030086957295407     -0.01135502288492967     0.007908736177039407     -0.08303186309254006     0.07817161519927673      -0.014901725782961865    -0.14630175250885513     0.14630175250885513      0.014901725782961865     -0.07817161519927673     0.08303186309254006
0.135240478825294         -0.05185707441957485     -0.014607671583352515    0.010159728337100993     -0.1068982502408039      0.10053004743749613      -0.019252220740688754    -0.18817607693761151     0.18817607693761151      0.019252220740688754     -0.10053004743749613     0.1068982502408039
0.17551285141334577       -0.06728554922621627     -0.018945579551886464    0.013175162568465845     -0.1387071868342292      0.13043501007063654      -0.02503370952291038     -0.24410848738195556     0.24410848738195556      0.02503370952291038      -0.13043501007063654     0.1387071868342292
0.19430551706668264       -0.07446656893478135     -0.02094839785206372     0.014574386440138481     -0.15348078566520057     0.14438549007392554      -0.027790398552818337    -0.270075877186308       0.270075877186308        0.027790398552818337     -0.14438549007392554     0.15348078566520057
0.20401224666962436       -0.07817819738506145     -0.02199582393451012     0.015300706823668679     -0.16114103927897916     0.1515717502612674       -0.029166095671918614    -0.2835466938683281      0.2835466938683281       0.029166095671918614     -0.1515717502612674      0.16114103927897916
0.22082772998593997       -0.08460804851258563     -0.023810335776800792    0.016558950206470913     -0.17441130352969056     0.16402089052065277      -0.031549288868886166    -0.30688290518145717     0.30688290518145717      0.031549288868886166     -0.16402089052065277     0.17441130352969056
0.2459817116649452        -0.09425810971416947     -0.02650189602819685     0.0184388295470763       -0.1942665893246251      0.18276584953205374      -0.035255213155444276    -0.34177722570123475     0.34177722570123475      0.035255213155444276     -0.18276584953205374     0.1942665893246251
0.2607277027657703        -0.099910949478656       -0.028072628449967295    0.019540900657735158     -0.20587618167627425     0.19376761623835087      -0.03744041097647067     -0.36220338693815474     0.36220338693815474      0.03744041097647067      -0.19376761623835087     0.20587618167627425
0.26609025863195246       -0.10196867844163376     -0.02864682590370614     0.01994531017528174      -0.21009659389326        0.19777811987327612      -0.038215638471023355    -0.3696590752955131      0.3696590752955131       0.038215638471023355     -0.19777811987327612     0.21009659389326
0.27758212742007116       -0.10635962520349354     -0.02987863655318552     0.02080360524582084      -0.21914073908326137     0.2062977617307139       -0.039868919764148324    -0.3855695810498273      0.3855695810498273       0.039868919764148324     -0.2062977617307139      0.21914073908326137
0.29474250366457805       -0.11290622887893145     -0.031700198523648276    0.022084784824574648     -0.23257391403051034     0.21905100148521658      -0.04237272288862061     -0.4092521926271068      0.4092521926271068       0.04237272288862061      -0.21905100148521658     0.23257391403051034
0.3566676658505591        -0.1365649702797505      -0.03828757896449493     0.026683056519937652     -0.2812604513732363      0.2649994297457665       -0.051534977586266455    -0.4947249035327369      0.4947249035327369       0.051534977586266455     -0.2649994297457665      0.2812604513732363
0.3935720741639455        -0.15067852304442267     -0.04207912760944727     0.029389526116478937     -0.31003632445127205     0.2926777677264188       -0.05756155879458813     -0.5451525333831031      0.5451525333831031       0.05756155879458813      -0.2926777677264188      0.31003632445127205
0.41569312922212415       -0.15912937976702474     -0.04441210708106597     0.031024685428487075     -0.3273963390632996      0.3091211800047999       -0.060923696576903684    -0.5755938224911956      0.5755938224911956       0.060923696576903684     -0.3091211800047999      0.3273963390632996
0.4452838473742088        -0.1703707604777821      -0.047462519571451006    0.0332580324619601       -0.35009694982207706     0.33138609208905134      -0.06532183239337103     -0.6161612095177575      0.6161612095177575       0.06532183239337103      -0.33138609208905134     0.35009694982207706
0.44724507306916583       -0.17111582129663144     -0.04766469605549621     0.03340605514817176      -0.35160151016706476     0.33286177501946107      -0.06561333383408748     -0.6188499513524385      0.6188499513524385       0.06561333383408748      -0.33286177501946107     0.35160151016706476
0.45463816300249665       -0.17394617362673515     -0.04841179513636608     0.033945474790964776     -0.35734583349870963     0.33843886100823095      -0.06687506268051324     -0.6289096318264276      0.6289096318264276       0.06687506268051324      -0.33843886100823095     0.35734583349870963
0.5154024344404945        -0.19701316238643818     -0.05468841432629784     0.03838352209264635      -0.4045574793811848      0.38349517016456813      -0.07642699342339784     -0.7116256561223544      0.7116256561223544       0.07642699342339784      -0.38349517016456813     0.4045574793811848
0.5264164455621205        -0.20119423894227292     -0.05582610185102458     0.03918795372956476      -0.4131149685193608      0.3916619872497311       -0.07815835741321348     -0.7266185983558778      0.7266185983558778       0.07815835741321348      -0.3916619872497311      0.4131149685193608
0.5622654246096255        -0.2147712122560937      -0.059519533093344526    0.04182763892148719      -0.4407904681062732      0.41829438091810184      -0.0836732695462052      -0.77541157947817        0.77541157947817         0.0836732695462052       -0.41829438091810184     0.4407904681062732
0.5904015983791311        -0.2254204886330216      -0.06233634259725848     0.04388249827181478      -0.4623200119705614      0.43936194256152555      -0.08830195638700873     -0.8133799981450792      0.8133799981450792       0.08830195638700873      -0.43936194256152555     0.4623200119705614
0.6283998875063791        -0.2398466555369459      -0.06615866699920964     0.04662943201959736      -0.49165158399313347     0.46773503815465134      -0.09469958199787348     -0.8646870401499118      0.8646870401499118       0.09469958199787348      -0.46773503815465134     0.49165158399313347
0.6700017649919069        -0.25545370824575564     -0.07017450534418171     0.049726896831633394     -0.5225233451975235      0.4992914877854995       -0.10147631313243247     -0.9203385198505909      0.9203385198505909       0.10147631313243247      -0.4992914877854995      0.5225233451975235
0.6780874223012703        -0.25848706364796087     -0.07095501561510735     0.05032891386816372      -0.5285235186685894      0.5054247359232544       -0.10279342497794468     -0.9311548296138994      0.9311548296138994       0.10279342497794468      -0.5054247359232544      0.5285235186685894
0.6885161818414522        -0.26245449841521706     -0.07194059941247608     0.05106785269356601      -0.5364593842935989      0.5133586093672697       -0.10481578781874175     -0.9450022058421272      0.9450022058421272       0.10481578781874175      -0.5133586093672697      0.5364593842935989
0.718977294724986         -0.274000541962691       -0.07494961129646467     0.053173316012314356     -0.5601566537655196      0.5358455140852453       -0.11045898598673062     -0.9855431818640346      0.9855431818640346       0.11045898598673062      -0.5358455140852453      0.5601566537655196
0.7329925542429221        -0.27914408322293083     -0.07621162153324532     0.054169725367664484     -0.5702441295749404      0.5463322033167833       -0.1129744003754677      -1.0036019325162564      1.0036019325162564       0.1129744003754677       -0.5463322033167833      0.5702441295749404
0.7801882018279129        -0.29679742382439134     -0.08077579069036647     0.05748996208504387      -0.6059623713797073      0.5812273239178584       -0.12130762723750774     -1.0658820680600585      1.0658820680600585       0.12130762723750774      -0.5812273239178584      0.6059623713797073
0.7871869378152329        -0.2994600697773784      -0.08147559310945424     0.05798397650546191      -0.6114110128612728      0.5864292662482412       -0.12255745420454649     -1.075282824904968       1.075282824904968        0.12255745420454649      -0.5864292662482412      0.6114110128612728
0.8050177989595659        -0.3062437619112511      -0.08325849787766237     0.059242589853605296     -0.6252926580410691      0.5996823896039356       -0.12574167077509396     -1.099233376869911       1.099233376869911        0.12574167077509396      -0.5996823896039356      0.6252926580410691
0.8124867717109598        -0.3090096651962526      -0.08394353850947962     0.059762321046584126     -0.6308006617346086      0.6052379990504023       -0.12713943067773        -1.108899230107281       1.108899230107281        0.12713943067773         -0.6052379990504023      0.6308006617346086
0.8403374826983886        -0.31932331548977994     -0.08649795519922163     0.06170032292831603      -0.6513392048639616      0.6259540570951586       -0.1323514736686312      -1.1449417882904893      1.1449417882904893       0.1323514736686312       -0.6259540570951586      0.6513392048639616
0.8408515029421066        -0.3195131184835635      -0.08654488770424032     0.06173693085638244      -0.6517131766543192      0.6263392972799353       -0.13244385042887663     -1.1456086235053782      1.1456086235053782       0.13244385042887663      -0.6263392972799353      0.6517131766543192
0.8583116969956428        -0.3260550811818508      -0.08808791898836899     0.06298466461826176      -0.6644352608557624      0.6397850638716411       -0.13590774692554794     -1.1683125778018562      1.1683125778018562       0.13590774692554794      -0.6397850638716411      0.6644352608557624
0.8823225095353504        -0.3350514210569236      -0.09020985616687442     0.06470051619265368      -0.6819303458438568      0.6582753383838382       -0.14067120884260956     -1.1995344753850858      1.1995344753850858       0.14067120884260956      -0.6582753383838382      0.6819303458438568
0.9011815294168323        -0.3420974989998553      -0.09200939418941773     0.06603404609590324      -0.6960869961843519      0.67230299981507         -0.1440306310478448      -1.2243593649515772      1.2243593649515772       0.1440306310478448       -0.67230299981507        0.6960869961843519
0.9295271730138701        -0.35271219120100383     -0.09445676164055566     0.06798404848900337      -0.7168584733676623      0.6939902914363536       -0.15011790352432744     -1.2607308612796886      1.2607308612796886       0.15011790352432744      -0.6939902914363536      0.7168584733676623
0.9335288540620088        -0.35421386011400247     -0.09480456033244897     0.06825804502166488      -0.7198092211386934      0.697046219317317        -0.15098185914399875     -1.2658735813120117      1.2658735813120117       0.15098185914399875      -0.697046219317317       0.7198092211386934
0.9570358579722038        -0.3630350871396031      -0.09684762801124328     0.06986757798722928      -0.7371427463640199      0.7149976021943929       -0.1560569782965595      -1.2960833702618535      1.2960833702618535       0.1560569782965595       -0.7149976021943929      0.7371427463640199
0.9794110516776119        -0.3713890492883259      -0.09879001424227235     0.07138934223059513      -0.7535907723810893      0.7319654247722148       -0.16085068692745447     -1.3247055102258498      1.3247055102258498       0.16085068692745447      -0.7319654247722148      0.7535907723810893
0.9998498514351284        -0.37911243937847583     -0.10046755433929314     0.07274897228987277      -0.7686316526153408      0.7478181048985629       -0.16582632657958135     -1.3506234309343224      1.3506234309343224       0.16582632657958135      -0.7478181048985629      0.7686316526153408
1.028510642201915         -0.38958902857384525     -0.10296902231186751     0.07473311446467741      -0.7891526662245845      0.7692034480707972       -0.17133853235337845     -1.387017581942003       1.387017581942003        0.17133853235337845      -0.7692034480707972      0.7891526662245845
1.03040656081749          -0.39028205761986345     -0.10313449505594002     0.0748643659753482       -0.7905101365061553      0.7706180939732992       -0.17170316617051423     -1.38942506430894        1.38942506430894         0.17170316617051423      -0.7706180939732992      0.7905101365061553
1.0541130942157202        -0.39922186007981814     -0.10501017650775604     0.07640949579102427      -0.8078362665188084      0.7890511738004649       -0.1777752074722711      -1.4191122328470016      1.4191122328470016       0.1777752074722711       -0.7890511738004649      0.8078362665188084
1.055656196142252         -0.39978696226364685     -0.10513875098230335     0.07651376135188642      -0.8089351320666592      0.7902127169879288       -0.1781026261728379      -1.4210452228817494      1.4210452228817494       0.1781026261728379       -0.7902127169879288      0.8089351320666592
1.072291791942895         -0.40587911428199397     -0.10652486355988072     0.07763780876353654      -0.8207815841894851      0.8027348729384911       -0.18163240283019952     -1.441884054297776       1.441884054297776        0.18163240283019952      -0.8027348729384911      0.8207815841894851
1.1037772636627765        -0.4173053876154729      -0.10916827445348933     0.07975844346262309      -0.8430818247409226      0.8261397257209693       -0.18807217801998546     -1.4811493724419058      1.4811493724419058       0.18807217801998546      -0.8261397257209693      0.8430818247409226
1.1137692935527972        -0.42098865025071214     -0.1099226843445937      0.08039822296861902      -0.8501524616607304      0.8338021393421182       -0.19061635559316706     -1.493338245409681       1.493338245409681        0.19061635559316706      -0.8338021393421182      0.8501524616607304
1.1253109586789996        -0.4252018552007863      -0.11083629222432394     0.08111882320096918      -0.858437294270669       0.8423701265324764       -0.19341954092472396     -1.5073878798784204      1.5073878798784204       0.19341954092472396      -0.8423701265324764      0.858437294270669
1.1320403446901786        -0.4276902155092406      -0.11135023279486904     0.08155552051945346      -0.8632090473252759      0.8475518147116871       -0.19510765055606022     -1.5156532114809016      1.5156532114809016       0.19510765055606022      -0.8475518147116871      0.8632090473252759
1.157590183549193         -0.4370294950709428      -0.11330187186357066     0.08321092533907687      -0.8811209043762914      0.8669970759074805       -0.2013096731948662      -1.5468083070889047      1.5468083070889047       0.2013096731948662       -0.8669970759074805      0.8811209043762914
1.2079934289014087        -0.45543493013439595     -0.11730071719344518     0.0864608268920263       -0.9169287042810235      0.9048110162565615       -0.21312440112035122     -1.6086153194172323      1.6086153194172323       0.21312440112035122      -0.9048110162565615      0.9169287042810235
1.224430873224269         -0.46143728795836936     -0.11860481570944784     0.08752068078552237      -0.928606299902994       0.9171428519304848       -0.2169774056463061      -1.6287717461871716      1.6287717461871716       0.2169774056463061       -0.9171428519304848      0.928606299902994
1.2324934402026435        -0.4643404281325262      -0.11923368130917625     0.08803469860799212      -0.9342431057606142      0.9231186067694923       -0.21884101790555557     -1.6385206946245496      1.6385206946245496       0.21884101790555557      -0.9231186067694923      0.9342431057606142
1.2450235749373326        -0.4688765696156829      -0.12025486096675149     0.08882946978681489      -0.9431998429843622      0.9323064354783712       -0.22167067718385217     -1.6538356012788795      1.6538356012788795       0.22167067718385217      -0.9323064354783712      0.9431998429843622
1.249382984503577         -0.47043039836502326     -0.12052869099189162     0.08911598681310778      -0.9459829224532916      0.9357386710068032       -0.22281077650194087     -1.6589108169581523      1.6589108169581523       0.22281077650194087      -0.9357386710068032      0.9459829224532916
1.3109671557516507        -0.4930201131169365      -0.12499011926629373     0.09292874502877635      -0.9892956039176498      0.9827848485500971       -0.23935488831988655     -1.7327255641478594      1.7327255641478594       0.23935488831988655      -0.9827848485500971      0.9892956039176498
1.313357753963928         -0.4938970094136204      -0.12516330471704906     0.09307675015394898      -0.990976932362593       0.9846111052918894       -0.2399971040602979      -1.7355909335941835      1.7355909335941835       0.2399971040602979       -0.9846111052918894      0.990976932362593
1.3140556841208855        -0.49414798035976815     -0.1252099764769596      0.0931204897683396       -0.9914439310770577      0.9851479903620157       -0.2401840722152992      -1.7364078492237733      1.7364078492237733       0.2401840722152992       -0.9851479903620157      0.9914439310770577
1.3141098828416633        -0.4941671209698496      -0.1252134275555838      0.09312410616160002      -0.9914780999600515      0.9851903839193478       -0.2401975346265479      -1.7364709492528503      1.7364709492528503       0.2401975346265479       -0.9851903839193478      0.9914780999600515
1.3308734941847598        -0.5000872929531142      -0.12628084279971072     0.09424265306108379      -1.0020465020610267      0.9983026697514314       -0.24436144526276143     -1.755987726549696       1.755987726549696        0.24436144526276143      -0.9983026697514314      1.0020465020610267
1.3482898025051586        -0.5064448139185022      -0.1273538597722533      0.09529101055420076      -1.0137871649369625      1.0119920907370474       -0.24966400630344177     -1.7761152493705674      1.7761152493705674       0.24966400630344177      -1.0119920907370474      1.0137871649369625
1.381990748404879         -0.5185645548747251      -0.12941723720259557     0.09725416120197619      -1.0363641765493334      1.037894042949568        -0.25986075333375913     -1.8143974661651412      1.8143974661651412       0.25986075333375913      -1.037894042949568       1.0363641765493334
1.4301397490336054        -0.5361196380713897      -0.13256976834046535     0.10014463002036564      -1.0693700610827146      1.0751084912028461       -0.2739514510399219      -1.8705271012456381      1.8705271012456381       0.2739514510399219       -1.0751084912028461      1.0693700610827146
1.4864629371557387        -0.5565088533411182      -0.13590007917479718     0.10337161279811807      -1.1072314930141574      1.1188039203503173       -0.2918310179653734      -1.9342043953991         1.9342043953991          0.2918310179653734       -1.1188039203503173      1.1072314930141574
1.4924851863413613        -0.558662450145546       -0.13628977502629547     0.10373587196827044      -1.1112507374968985      1.1233990630852877       -0.29351208733912504     -1.94113771324306        1.94113771324306         0.29351208733912504      -1.1233990630852877      1.1112507374968985
1.5127015584995762        -0.5658919607710777      -0.1375979633990399      0.10495867074641194      -1.1247431287536294      1.1388247143306836       -0.29915534835938895     -1.9644124947249226      1.9644124947249226       0.29915534835938895      -1.1388247143306836      1.1247431287536294
1.516696249275984         -0.567322267855711       -0.13785248973491765     0.10517845130751372      -1.1274881996861217      1.141800871736724        -0.300373261276615       -1.9689158101462292      1.9689158101462292       0.300373261276615        -1.141800871736724       1.1274881996861217
1.5361478226252827        -0.5742869429021701      -0.13909186919349661     0.10624864120312971      -1.1408549285723129      1.1562928430363693       -0.30630371341133233     -1.9908440581973483      1.9908440581973483       0.30630371341133233      -1.1562928430363693      1.1408549285723129
1.5451997035124965        -0.5775206695679279      -0.13957765397729713     0.10675037622891895      -1.1467727961520733      1.1633098821196404       -0.30930687228828946     -2.0007758059834226      2.0007758059834226       0.30930687228828946      -1.1633098821196404      1.1467727961520733
1.5460581093049421        -0.5778240974908644      -0.13961875893649384     0.10680035655319757      -1.1473030455784217      1.1639933443850377       -0.3095904919594578      -2.001705898004          2.001705898004           0.3095904919594578       -1.1639933443850377      1.1473030455784217
1.5664359277320732        -0.5850272165445037      -0.14059455546808297     0.10798684665151927      -1.1598907128871812      1.180218153290836        -0.31632338007868244     -2.0237854860993334      2.0237854860993334       0.31632338007868244      -1.180218153290836       1.1598907128871812
1.5696380218733736        -0.5861544984121635      -0.1407609060527663      0.1081715793302738       -1.1619053976615328      1.1827125959871234       -0.3173399613449338      -2.027278032303721       2.027278032303721        0.3173399613449338       -1.1827125959871234      1.1619053976615328
1.5855714945306203        -0.5917638009569272      -0.14158865888438454     0.10909080061358065      -1.171930376112687       1.1951248277150235       -0.32239842280637904     -2.04465678102133        2.04465678102133         0.32239842280637904      -1.1951248277150235      1.171930376112687
1.6305128654717755        -0.6079545350360334      -0.14389810865705963     0.11150776550274898      -1.2015723340322513      1.230245806111884        -0.3381836820898925      -2.093634458054241       2.093634458054241        0.3381836820898925       -1.230245806111884       1.2015723340322513
1.6340221065182265        -0.609213594530527       -0.14407347023294578     0.11168534595237498      -1.2039062159503926      1.2329481621717164       -0.3394653945527172      -2.097388983569391       2.097388983569391        0.3394653945527172       -1.2329481621717164      1.2039062159503926
1.6476902931161308        -0.6141175210151456      -0.14475648821591927     0.11237700625427494      -1.2129964816609504      1.2434736023996331       -0.344457552365434       -2.1120125316951484      2.1120125316951484       0.344457552365434        -1.2434736023996331      1.2129964816609504
1.6612728046732868        -0.6189345250568214      -0.14538591811832768     0.11315262729195644      -1.2214162953008012      1.2543218049264853       -0.3491007865908343      -2.126637313636451       2.126637313636451        0.3491007865908343       -1.2543218049264853      1.2214162953008012
1.6787370605840737        -0.6251228571797005      -0.1461846689927071      0.1139844570875125       -1.2328618929874737      1.2676295357313296       -0.35575387903123007     -2.144737549687572       2.144737549687572        0.35575387903123007      -1.2676295357313296      1.2328618929874737
1.6817030058842142        -0.6261738183354073      -0.14632032042921553     0.11412572629962489      -1.2348056927599629      1.2698895805816677       -0.35688377018466894     -2.1478115031569605      2.1478115031569605       0.35688377018466894      -1.2698895805816677      1.2348056927599629
1.684995730559369         -0.6254048382718858      -0.1464642967399303      0.11429493800872376      -1.2330228147286684      1.2685965383588753       -0.3542370342890858      -2.147382318798457       2.147382318798457        0.3542370342890858       -1.2685965383588753      1.2330228147286684
1.7859584492244496        -0.6013719581822892      -0.1506565202164746      0.11932303066449149      -1.1774213543560372      1.2280664783731206       -0.2734822330571893      -2.132005599671967       2.132005599671967        0.2734822330571893       -1.2280664783731206      1.1774213543560372
1.789454000212233         -0.6005398871084588      -0.15080166419742322     0.11949711427160829      -1.1754963097227553      1.2266632387110816       -0.27068632453821573     -2.13147322389562        2.13147322389562         0.27068632453821573      -1.2266632387110816      1.1754963097227553
1.7950218176053054        -0.5992244232694522      -0.1510470262345929      0.11977306338945301      -1.1724976716848725      1.2244000213929385       -0.2662155142773147      -2.130682178800495       2.130682178800495        0.2662155142773147       -1.2244000213929385      1.1724976716848725
1.7953708937334216        -0.5991456519032385      -0.1510597698349026      0.11978973626865683      -1.1723116682365589      1.224270939376397        -0.26595304922714286     -2.130629558385812       2.130629558385812        0.26595304922714286      -1.224270939376397       1.1723116682365589
1.7955041288463043        -0.5991171243636122      -0.1510640276918925      0.11979546888623421      -1.1722444562579661      1.2242240411964842       -0.2658602901066108      -2.1306082073478385      2.1306082073478385       0.2658602901066108       -1.2242240411964842      1.1722444562579661
1.7961784683635043        -0.598952843872612       -0.15108738573821545     0.1198264134695142       -1.1718621910818148      1.2239491844086348       -0.26533787665252173     -2.130473498837927       2.130473498837927        0.26533787665252173      -1.2239491844086348      1.1718621910818148
1.797202134526831         -0.5987127256785232      -0.15111913041445002     0.11987501540990837      -1.171282780960764       1.2235681217533303       -0.26456799847406365     -2.1302829042400293      2.1302829042400293       0.26456799847406365      -1.2235681217533303      1.171282780960764
1.7978214202734744        -0.5985674617434276      -0.151138334942477       0.11990441805114398      -1.170932256109711       1.2233375908640003       -0.264102246454849       -2.1301676005188614      2.1301676005188614       0.264102246454849        -1.2233375908640003      1.170932256109711
1.8395006131461313        -0.5888080865877212      -0.15272129143542248     0.12182425749809156      -1.1484830174893448      1.2067493288615414       -0.23215526887680926     -2.123077077474076       2.123077077474076        0.23215526887680926      -1.2067493288615414      1.1484830174893448
1.8549899268591779        -0.5850173894053774      -0.15327979340683856     0.12256437048237916      -1.1396166771017553      1.2004528805197563       -0.2199379166607231      -2.120131640960787       2.120131640960787        0.2199379166607231       -1.2004528805197563      1.1396166771017553
1.8606804564614947        -0.5835337859918832      -0.1533918892961794      0.12286681951927128      -1.1357759617952206      1.1983591821723136       -0.21542462601814338     -2.118710517949389       2.118710517949389        0.21542462601814338      -1.1983591821723136      1.1357759617952206
1.8677092887578723        -0.5819560363588603      -0.15352153297727122     0.12317443180622616      -1.131778944424631       1.1960452010108118       -0.2106497465610027      -2.1171743988744383      2.1171743988744383       0.2106497465610027       -1.1960452010108118      1.131778944424631
1.887617044888318         -0.5773574962832129      -0.1540906422769993      0.12402661930781282      -1.1208804421661738      1.1885495429666795       -0.19633658850417707     -2.113093396628675       2.113093396628675        0.19633658850417707      -1.1885495429666795      1.1208804421661738
1.9297262443893644        -0.5670149315179837      -0.15540427077076682     0.1259236030396475       -1.096548263189679       1.1715114628822572       -0.1641226385650775      -2.1039370875068575      2.1039370875068575       0.1641226385650775       -1.1715114628822572      1.096548263189679