% Model:              Prism_potential.mph
% Version:            COMSOL 6.2.0.339
% Date:               May 6 2024, 20:11
% Dimension:          1
% Nodes:              560
% Expressions:        11
% Description:        Line graph
% Arc length (m)          Magnetic scalar potential Magnetic scalar potential Magnetic scalar potential Magnetic scalar potential Magnetic scalar potential Magnetic scalar potential Magnetic scalar potential Magnetic scalar potential Magnetic scalar potential Magnetic scalar potential Magnetic scalar potential
0                         -2.1477070319913877E-6   1.7213087679799266E-5    1.4805998816047265E-5    1.0656784423890113E-4    1.1515867236766867E-4    3.289318160369214E-6     -1.1880146289271198E-5   1.1880146289271198E-5    -3.289318160369214E-6    -1.1515867236766867E-4   -1.0656784423890113E-4
0.005167727145759048      -2.227657149727814E-6    0.0012726813009854       1.5004986108054473E-5    0.0038736085330882473    0.0038825191616879747    -0.0037624792728238638   0.0037535686442240384    -0.0037535686442240384   0.0037624792728238638    -0.0038825191616879747   -0.0038736085330882473
0.006421734728415644      -2.356192294063772E-6    0.0015767746273271665    1.4919948634891137E-5    0.004785291291932223     0.004794716061109298     -0.004675356472030485    0.004665931702853314     -0.004665931702853314    0.004675356472030485     -0.004794716061109298    -0.004785291291932223
0.007173528382051817      -2.433250764573042E-6    0.0017590824825735715    1.4868967577152102E-5    0.005331856816499465     0.005341589819558581     -0.005222638078941675    0.005212905075882463     -0.005212905075882463    0.005222638078941675     -0.005341589819558581    -0.005331856816499465
0.011116402607335173      -2.0000954609483853E-6   0.0027163462489844196    1.4678149429904835E-5    0.008203751153750266     0.00821175153559488      -0.00809432634015596     0.008086325958311248     -0.008086325958311248    0.00809432634015596      -0.00821175153559488     -0.008203751153750266
0.011435440402833553      -1.9759392755974118E-6   0.0027937389253583082    1.4670917869380809E-5    0.008435948569000538     0.008443852326103746     -0.008326484983149019    0.008318581226045712     -0.008318581226045712    0.008326484983149019     -0.008443852326103746    -0.008435948569000538
0.06465557770749421       4.798207906516361E-6     0.01571936399818397      1.3293745134637175E-5    0.047220863390902805     0.047201670559277424     -0.04709532059820076     0.047114513429826005     -0.047114513429826005    0.04709532059820076      -0.047201670559277424    -0.047220863390902805
0.1160384244206447        1.1338494796013466E-5    0.028198764567684068     1.1964115804262443E-5    0.08466682715586063      0.08462147317667713      -0.08452576025024357     0.0845711142294269       -0.0845711142294269      0.08452576025024357      -0.08462147317667713     -0.08466682715586063
0.11670669992455106       1.2614042613947349E-5    0.028361381393176358     1.2045387251594748E-5    0.0851575538137627       0.08510709764330746      -0.08501073454529524     0.0850611907157503       -0.0850611907157503      0.08501073454529524      -0.08510709764330746     -0.0851575538137627
0.16587597928373365       1.0339043769809334E-5    0.04036509222690904      6.473520470535489E-6     0.12114184885014821      0.12110049267506946      -0.12104870451130581     0.12109006068638432      -0.12109006068638432     0.12104870451130581      -0.12110049267506946     -0.12114184885014821
0.20829775050918806       8.293352605729483E-6     0.05075618066405167      1.203196581183309E-5     0.1523332565606131       0.15230008315019067      -0.15220382742369667     0.1522370008341189       -0.1522370008341189      0.15220382742369667      -0.15230008315019067     -0.1523332565606131
0.22755446550876188       7.364742352413745E-6     0.055473056522581554     1.4555137161968712E-5    0.16649211960109664      0.16646266063168744      -0.1663462195343924      0.16637567850380136      -0.16637567850380136     0.1663462195343924       -0.16646266063168744     -0.16649211960109664
0.26561765795495135       3.999234433983484E-6     0.0648364511490971       9.922510045054685E-6     0.19455704195633877      0.19454104501860325      -0.19446166493824357     0.19447766187597884      -0.19447766187597884     0.19446166493824357      -0.19454104501860325     -0.19455704195633877
0.26728681944919935       7.955078979782378E-6     0.0652485047432352       1.0199706036390067E-5    0.19580222321180998      0.19577040289589126      -0.1956888052476009      0.1957206255635194       -0.1957206255635194      0.1956888052476009       -0.19577040289589126     -0.19580222321180998
0.3241224320455713        7.469050862325818E-6     0.07936635389605182      3.0049976729760097E-5    0.23823419969679838      0.23820432349334952      -0.23796392367951208     0.23799379988296077      -0.23799379988296077     0.23796392367951208      -0.23820432349334952     -0.23823419969679838
0.33726966517527956       7.356622673803824E-6     0.0826320995372624       3.464174806064931E-5     0.24804957884937662      0.24802015235868186      -0.24774301837419727     0.2477724448648919       -0.2477724448648919      0.24774301837419727      -0.24802015235868186     -0.24804957884937662
0.340889937709091         1.668404257534526E-5     0.08353744187395613      3.627728326558756E-5     0.25079080284008065      0.2507240666697797       -0.2504338484036556      0.2505005845739564       -0.2505005845739564      0.2504338484036556       -0.2507240666697797      -0.25079080284008065
0.39718851814393963       8.016998154314206E-6     0.09759657985183252      6.534449845649977E-6     0.29283191135118786      0.2927998433585712       -0.29274756775980665     0.2927796357524233       -0.2927796357524233      0.29274756775980665      -0.2927998433585712      -0.29283191135118786
0.43766277487586963       8.270691676752874E-6     0.10787031942186381      3.088290520729701E-5     0.3237510312697733       0.32371794850306673      -0.323470885261409       0.32350396802811554      -0.32350396802811554     0.323470885261409        -0.32371794850306673     -0.3237510312697733
0.4482160093157549        8.336839579996735E-6     0.11054908837307556      3.723150746533016E-5     0.3318128648282472       0.3317795174699276       -0.33148166541020563     0.3315150127685252       -0.3315150127685252      0.33148166541020563      -0.3317795174699276      -0.3318128648282472
0.45058654768499623       1.2342822315738545E-5    0.1111485146749116       3.8868040384834645E-5    0.3336257018309048       0.33357633054164226      -0.3332653862185642      0.3333147575078268       -0.3333147575078268      0.3332653862185642       -0.33357633054164226     -0.3336257018309048
0.523876287482481         -1.1246190398793866E-5   0.12990679718319756      1.9122597415903962E-6    0.38970554820776054      0.38975053296935624      -0.38973523489142403     0.38969025012982833      -0.38969025012982833     0.38973523489142403      -0.38975053296935624     -0.38970554820776054
0.5273490284093724        1.5963618187780394E-5    0.13080833350753815      1.0021359590250186E-6    0.3924609363028252       0.3923970818300747       -0.3923890647424029      0.3924529192151536       -0.3924529192151536      0.3923890647424029       -0.3923970818300747      -0.3924609363028252
0.5413758428817876        1.520485817647888E-5     0.13447628668033157      1.5575464778430897E-5    0.4035215716164604       0.4034607521837551       -0.4033361484655281      0.40339696789823354      -0.40339696789823354     0.4033361484655281       -0.4034607521837551      -0.4035215716164604
0.5651307104021362        1.391987336516777E-5     0.14068808493729867      4.025587215932881E-5     0.4222531180472627       0.4221974385538026       -0.4218753915765285      0.4219310710699887       -0.4219310710699887      0.4218753915765285       -0.4221974385538026      -0.4222531180472627
0.5682919405366275        2.082214025355962E-5     0.14151643013681744      3.823757017192746E-5     0.42474388497164617      0.4246605964106326       -0.4243546958492578      0.4244379844102715       -0.4244379844102715      0.4243546958492578       -0.4246605964106326      -0.42474388497164617
0.6531136445947826        -7.439895223218182E-6    0.163920433705538        5.331102043248763E-7     0.49174855376698384      0.4917783133478772       -0.49177404846624345     0.49174428888534993      -0.49174428888534993     0.49177404846624345      -0.4917783133478772      -0.49174855376698384
0.6573129257015919        1.6800422362475698E-5    0.16506086089245126      3.5092192741817754E-7    0.4952175872097874       0.4951503855203381       -0.49514757814491955     0.49521477983436885      -0.49521477983436885     0.49514757814491955      -0.4951503855203381      -0.4952175872097874
0.6711106513703089        1.7311138278641464E-5    0.16880285577426019      2.0256663460349123E-5    0.5065242162531782       0.5064549717000643       -0.5062929183923823      0.5063621629454962       -0.5063621629454962      0.5062929183923823       -0.5064549717000643      -0.5065242162531782
0.6772334771986471        1.7537771614998653E-5    0.17046338907242517      2.9089958984291004E-5    0.5115416025964419       0.5114714515099823       -0.5112387318381086      0.5113088829245682       -0.5113088829245682      0.5112387318381086       -0.5114714515099823      -0.5115416025964419
0.6810072240075935        1.1253022771448486E-5    0.17149274271596437      3.056820573576428E-5     0.5146230070163782       0.5145779949252929       -0.5143334492794076      0.5143784613704927       -0.5143784613704927      0.5143334492794076       -0.5145779949252929      -0.5146230070163782
0.7119013775992307        4.684786194533112E-6     0.1798712047138545       1.818944093424273E-5     0.5396957414776886       0.539677002332911        -0.5395314868054378      0.5395502259502152       -0.5395502259502152      0.5395314868054378       -0.539677002332911       -0.5396957414776886
0.7260378423293813        1.679309950191471E-6     0.18370499909746696      1.2525198620547953E-5    0.5511684567067825       0.5511617394669823       -0.5510615378780186      0.5510682551178187       -0.5510682551178187      0.5510615378780186       -0.5511617394669823      -0.5511684567067825
0.7773133411670029        -2.3839003262262964E-5   0.19791883996658685      9.617764171497957E-6     0.5937473129499212       0.5938426689629706       -0.5937657268495995      0.5936703708365497       -0.5936703708365497      0.5937657268495995       -0.5938426689629706      -0.5937473129499212
0.7812057228877595        -2.0810043908039326E-5   0.1989924687215562       6.688370507857658E-6     0.5969625395588831       0.5970457797345154       -0.5969922727704536      0.5969090325948208       -0.5969090325948208      0.5969922727704536       -0.5970457797345154      -0.5969625395588831
0.7822638935320212        -1.998660055092978E-5    0.19928434205589168      5.8919947660279076E-6    0.5978366209456363       0.5979165673478403       -0.5978694313897132      0.5977894849875086       -0.5977894849875086      0.5978694313897132       -0.5979165673478403      -0.5978366209456363
0.7849973944652383        -4.8185890606158984E-6   0.20005559359840658      8.496476655315405E-6     0.6001911295237188       0.6002104038799616       -0.60014243206672        0.6001231577104769       -0.6001231577104769      0.60014243206672         -0.6002104038799616      -0.6001911295237188
0.7860499428798707        5.228598222781124E-6     0.2003450789158226       8.286317814691619E-6     0.6010788392151714       0.6010579248222805       -0.6009916342797639      0.6010125486726543       -0.6010125486726543      0.6009916342797639       -0.6010579248222805      -0.6010788392151714
0.7872768229938115        1.0522550257189645E-5    0.20070028895444697      7.981362238874425E-6     0.6021538374128099       0.6021117472117814       -0.6020478963138713      0.6020899865148994       -0.6020899865148994      0.6020478963138713       -0.6021117472117814      -0.6021538374128099
0.7937225074785594        4.744313386280093E-5     0.20256524424100175      1.5814999492464008E-5    0.6078538789887          0.607664106453249        -0.6075375864573102      0.6077273589927608       -0.6077273589927608      0.6075375864573102       -0.607664106453249       -0.6078538789887
0.8358434084038009        -9.767457454127682E-7    0.2146215155913158       1.789181283589898E-5     0.6439341605337993       0.6439380675167814       -0.643794933014095       0.6437910260311126       -0.6437910260311126      0.643794933014095        -0.6439380675167814      -0.6439341605337993
0.8964942656754296        -2.5427283283046718E-5   0.23199011633428612      3.36915438641876E-5      0.696054260611748        0.696155969744881        -0.6958864373939682      0.6957847282608353       -0.6957847282608353      0.6958864373939682       -0.696155969744881       -0.696054260611748
0.9014390107916688        4.96038611584571E-6      0.23342316374690597      2.951355899727219E-5     0.7003974662489376       0.7003776247044751       -0.7001415162324975      0.7001613577769602       -0.7001613577769602      0.7001415162324975       -0.7003776247044751      -0.7003974662489376
0.9089250988372364        -1.2682629167222632E-6   0.2355839876005955       1.386754558518259E-5     0.7068048964582928       0.7068099695099606       -0.7066990291452796      0.7066939560936121       -0.7066939560936121      0.7066990291452796       -0.7068099695099606      -0.7068048964582928
0.9237257975967841        -7.442270151725508E-6    0.24001761126754348      2.6020929829331774E-5    0.7201420329816434       0.720171802062251        -0.7199636346236171      0.7199338655430094       -0.7199338655430094      0.7199636346236171       -0.720171802062251       -0.7201420329816434
0.9695115435284047        -2.6541471563379642E-5   0.2537329614729079       6.361724688517482E-5     0.7614002704631366       0.7615064363493909       -0.7609974983743102      0.7608913324880558       -0.7608913324880558      0.7609974983743102       -0.7615064363493909      -0.7614002704631366
0.9763706316861684        2.9303217579068532E-5    0.2557828850993896       5.9174162015695727E-5    0.767643958381389        0.7675267455110734       -0.7670533522149485      0.767170565085264        -0.767170565085264       0.7670533522149485       -0.7675267455110734      -0.767643958381389
1.0058491461481227        -2.451295340379859E-6    0.2646434919133063       1.0706868405849484E-5    0.7939684006228607       0.7939782058042228       -0.7938925508569766      0.7938827456756143       -0.7938827456756143      0.7938925508569766       -0.7939782058042228      -0.7939684006228607
1.0598200642652535        -4.481552752098102E-5    0.2815996445916735       -1.7427948189106422E-5   0.8446395909272214       0.8448188530373062       -0.8449582766228196      0.844779014512735        -0.844779014512735       0.8449582766228196       -0.8448188530373062      -0.8446395909272214
1.0729703232631063        -5.645790563557152E-5    0.2857198872722466       -2.5516686429749363E-5   0.8569446792597488       0.8571705108822921       -0.8573746443737306      0.8571488127511877       -0.8571488127511877      0.8573746443737306       -0.8571705108822921      -0.8569446792597488
1.0794134890152622        -5.881448249164638E-5    0.2877397153641183       -1.9616921503246834E-5   0.8630230494413578       0.8632583073713253       -0.8634152427433518      0.8631799848133845       -0.8631799848133845      0.8634152427433518       -0.8632583073713253      -0.8630230494413578
1.0933999093187503        -6.392999180094899E-5    0.2921242315663062       -6.810081647196271E-6    0.8762175943887269       0.8764733143559318       -0.8765277950091099      0.8762720750419054       -0.8762720750419054      0.8765277950091099       -0.8764733143559318      -0.8762175943887269
1.1027731934590093        5.578046836480447E-6     0.29505816062781237      1.081376909899969E-5     0.8852288930535052       0.8852065808661602       -0.8851200707133688      0.885142382900714        -0.885142382900714       0.8851200707133688       -0.8852065808661602      -0.8852288930535052
1.1170994754288381        -8.59246875867985E-6     0.29978075218498956      1.2332222891225106E-5    0.8993744005090154       0.8994087703840512       -0.8993101126009219      0.8992757427258864       -0.8992757427258864      0.8993101126009219       -0.8994087703840512      -0.8993744005090154
1.1731331092168322        -6.401686171132845E-5    0.3182519763590242       1.8271271410356363E-5    0.9547009804392905       0.9549570478861371       -0.9548108777148546      0.9545548102680085       -0.9545548102680085      0.9548108777148546       -0.9549570478861371      -0.9547009804392905
1.1860929436082697        -7.723626513581679E-5    0.3225140310963279       2.0499070634185995E-5    0.967469617041248        0.9677785621017925       -0.9676145695367193      0.9673056244761753       -0.9673056244761753      0.9676145695367193       -0.9677785621017925      -0.967469617041248
1.1936057286889548        -8.760178582410292E-5    0.3249712891606614       2.0405262208335182E-5    0.9748202849591688       0.9751706921024664       -0.9750074500048         0.9746570428615027       -0.9746570428615027      0.9750074500048          -0.9751706921024664      -0.9748202849591688
1.1970090797056478        -4.9823496883444465E-5   0.3260988578957489       1.4673738970484481E-5    0.978255621649361        0.978454915636896        -0.9783375257251323      0.9781382317375977       -0.9781382317375977      0.9783375257251323       -0.978454915636896       -0.978255621649361
1.19986394071343          -1.9832188903840062E-6   0.3270332813008201       1.1814491141935694E-5    0.9811431354292464       0.9811510683048092       -0.9810565523756739      0.9810486195001115       -0.9810486195001115      0.9810565523756739       -0.9811510683048092      -0.9811431354292464
1.205287791525636         5.8433352372471365E-5    0.32892104884193074      7.668521787469035E-6     0.986910687317686        0.9866769539081974       -0.986615605733898       0.9868493391433868       -0.9868493391433868      0.986615605733898        -0.9866769539081974      -0.986910687317686
1.2101279481448663        9.101693126333242E-5     0.3305940541321687       2.6716738234152526E-6    0.9919748829543257       0.9916108152292735       -0.9915894418386866      0.9919535095637388       -0.9919535095637388      0.9915894418386866       -0.9916108152292735      -0.9919748829543257
1.2261211703501569        9.00943854676736E-5      0.3361497018638833       6.88931542431096E-6      1.008656851624282        1.0082964740824123       -1.008241359559018       1.0086017371008882       -1.0086017371008882      1.008241359559018        -1.0082964740824123      -1.008656851624282
1.2677926533735915        5.0346099695877146E-5    0.3505896501346569       1.3368814030337208E-5    1.0519231178594832       1.051721733460701        -1.0516147829484586      1.0518161673472415       -1.0518161673472415      1.0516147829484586       -1.051721733460701       -1.0519231178594832
1.308277380728128         1.1729799158255016E-5    0.3646183653696564       1.966378400564497E-5     1.0939572108433078       1.093910291646676        -1.093752981374631       1.0937999005712633       -1.0937999005712633      1.093752981374631        -1.093910291646676       -1.0939572108433078
1.3441866587237445        2.8170062576437474E-4    0.37783443273917006      -9.5550192695571E-6      1.1340284793919597       1.1329016768889038       -1.1329781170430602      1.1341049195461168       -1.1341049195461168      1.1329781170430602       -1.1329016768889038      -1.1340284793919597
1.3520048573523582        3.2400292936412027E-4    0.3807374903388805       -2.2547129742816465E-6   1.1428514580234717       1.141555446306017        -1.141573484009811       1.1428694957272667       -1.1428694957272667      1.141573484009811        -1.141555446306017       -1.1428514580234717
1.4045317563791242        1.0068009487392091E-4    0.4001882254647262       1.9352808438939748E-5    1.2008434478176815       1.200440727438187        -1.2002859049706758      1.200688625350171        -1.200688625350171       1.2002859049706758       -1.200440727438187       -1.2008434478176815
1.4172976503689778        4.640474865249557E-5     0.4049154419431773       2.4604200256380567E-5    1.2149375521278618       1.2147519331332532       -1.214555099531202       1.2147407185258117       -1.2147407185258117      1.214555099531202        -1.2147519331332532      -1.2149375521278618
1.4174147421678438        4.7007488977099675E-5    0.40496084669200627      2.4426929394233732E-5    1.2150742627715492       1.214886232815642        -1.214690817380488       1.2148788473363963       -1.2148788473363963      1.214690817380488        -1.214886232815642       -1.2150742627715492
1.419233168036971         4.8647048512266656E-5    0.4056719991639061       2.472074665963025E-5     1.2172121745753808       1.217017586381333        -1.216819820408056       1.2170144086021046       -1.2170144086021046      1.216819820408056        -1.217017586381333       -1.2172121745753808
1.4713351092478766        9.919999016172758E-5     0.4260267499601803       2.6962988955803917E-5    1.278386501816687        1.2779897018560413       -1.277773997944395       1.2781707979050412       -1.2781707979050412      1.277773997944395        -1.2779897018560413      -1.278386501816687
1.4763516874212523        5.5928415901922396E-5    0.42796728435456577      2.520996463322182E-5     1.2841145497540332       1.283890836090427        -1.283689156373361       1.2839128700369682       -1.2839128700369682      1.283689156373361        -1.283890836090427       -1.2841145497540332
1.4833621713016143        1.818424097803145E-5     0.43066657955162413      1.4942983036324645E-5    1.292095879068973        1.2920231421050623       -1.2919035982407714      1.291976335204683        -1.291976335204683       1.2919035982407714       -1.2920231421050623      -1.292095879068973
1.4979011515906901        -4.1640579851465794E-5   0.43658215307212334      2.9633346275941127E-6    1.3096750313951766       1.309841593714584        -1.309817887037563       1.3096513247181565       -1.3096513247181565      1.309817887037563        -1.309841593714584       -1.3096750313951766
1.5011233470182717        -1.1478047785818822E-4   0.43789050020708276      1.5184325035618221E-6    1.3134480133955453       1.3139071353069793       -1.3138949878469508      1.3134358659355172       -1.3134358659355172      1.3138949878469508       -1.3139071353069793      -1.3134480133955453
1.50396749845525          -1.0476543072602423E-4   0.43908600193395064      3.3224696411884532E-6    1.3170617648189635       1.3174808265418694       -1.3174542467847397      1.317035185061835        -1.317035185061835       1.3174542467847397       -1.3174808265418694      -1.3170617648189635
1.5086944374663227        -1.242013724083149E-4    0.441010462733747        4.765657755153511E-6     1.322802048087444        1.3232988535770789       -1.3232607283150375      1.3227639228254036       -1.3227639228254036      1.3232607283150375       -1.3232988535770789      -1.322802048087444
1.5749792063672592        -3.967470726521658E-4    0.4679967299723584       2.5003149796131233E-5    1.403296708370954        1.4048836966615643       -1.4046836714631954      1.4030966831725855       -1.4030966831725855      1.4046836714631954       -1.4048836966615643      -1.403296708370954
1.5787331110802922        -3.9843026546113763E-4   0.46957943815307857      2.2786807250460605E-5    1.4080326011573137       1.40962632221916         -1.4094440277611564      1.4078503066993107       -1.4078503066993107      1.4094440277611564       -1.40962632221916        -1.4080326011573137
1.5960712068337293        -4.0620439941614487E-4   0.476889465467252        1.2550223688325628E-5    1.4299061884976756       1.4315310060953417       -1.4314306043058354      1.4298057867081695       -1.4298057867081695      1.4314306043058354       -1.4315310060953417      -1.4299061884976756
1.622080718451937         3.402466740207253E-6     0.48807707372363285      1.347151075656132E-5     1.4642919121474036       1.4642783022804444       -1.464170530194392       1.4641841400613518       -1.4641841400613518      1.464170530194392        -1.4642783022804444      -1.4642919121474036
1.6241645228230683        -4.718251413463395E-5    0.48898248396094224      1.2007840598406497E-5    1.4669011182169496       1.4670898482734898       -1.4669937855487025      1.4668050554921632       -1.4668050554921632      1.4669937855487025       -1.4670898482734898      -1.4669011182169496
1.6366672356233418        -3.506896459207756E-4    0.494414896101129        3.2258993205842943E-6    1.4825562126088259       1.4839589711925107       -1.4839331639979463      1.4825304054142623       -1.4825304054142623      1.4839331639979463       -1.4839589711925107      -1.4825562126088259
1.6626581810129382        -2.1106139190543412E-4   0.50616563185654         1.4786295390392733E-5    1.5181339179673687       1.5189781635349922       -1.518859873171869       1.5180156276042471       -1.5180156276042471      1.518859873171869        -1.5189781635349922      -1.5181339179673687
1.6654439891834203        -1.960955057079348E-4    0.5074251203124583       1.602538251641104E-5     1.521947271456023        1.5227316534788566       -1.5226034504187254      1.5218190683958932       -1.5218190683958932      1.5226034504187254       -1.5227316534788566      -1.521947271456023
1.6793052893194944        -1.0903192245501373E-4   0.5134995144629791       -9.537017713983709E-6    1.5402423314731695       1.5406784591629914       -1.5407547553047034      1.5403186276148828       -1.5403186276148828      1.5407547553047034       -1.5406784591629914      -1.5402423314731695
1.6878354717953314        -6.289757470251628E-5    0.5172821837996515       2.5813942603381164E-8    1.551720859505318        1.5519724498041296       -1.551972243292589       1.5517206529937786       -1.5517206529937786      1.551972243292589        -1.5519724498041296      -1.551720859505318
1.6976645747615495        -7.382814736918561E-6    0.5215954685950922       1.1681907401303983E-5    1.564818367785406        1.5648478990443555       -1.5647544437851453      1.5647249125261973       -1.5647249125261973      1.5647544437851453       -1.5648478990443555      -1.564818367785406
1.7273872959017076        1.7418243083897598E-4    0.5355165971780019       3.6717472806753406E-6    1.6069128433848041       1.6062161136614503       -1.6061867396832052      1.6068834694065601       -1.6068834694065601      1.6061867396832052       -1.6062161136614503      -1.6069128433848041
1.730784962042994         1.9493753211044371E-4    0.5371079503724691       2.756089198772797E-6     1.6117247505384207       1.6109450004099808       -1.6109229516963912      1.611702701824832        -1.611702701824832       1.6109229516963912       -1.6109450004099808      -1.6117247505384207
1.7435794538125           2.7758213375358244E-4    0.5429435878808601       1.1150569575644163E-8    1.6293859725123636       1.628275643977351        -1.6282755547727947      1.6293858833078079       -1.6293858833078079      1.6282755547727947       -1.628275643977351       -1.6293859725123636
1.7592244870129092        3.808816697069729E-4     0.5500685939104336       -9.726803581375725E-6    1.6509286378563874       1.6494051111775607       -1.6494829256062125      1.6510064522850385       -1.6510064522850385      1.6494829256062125       -1.6494051111775607      -1.6509286378563874
1.7613194496212312        3.238224420982205E-4     0.5510674725025191       -6.6244966912097235E-6   1.6538235644049872       1.6525282746365957       -1.6525812706101257      1.6538765603785168       -1.6538765603785168      1.6525812706101257       -1.6525282746365957      -1.6538235644049872
1.764062212298259         2.5225268541639607E-4    0.5522818415827666       -1.957983530931118E-6    1.657342198185007        1.656333187443343        -1.656348851311591       1.6573578620532547       -1.6573578620532547      1.656348851311591        -1.656333187443343       -1.657342198185007
1.7732484310711627        4.916280140512938E-6     0.5565907511718176       1.3141165683816996E-5    1.6698346507384665       1.6698149856179063       -1.6697098562924362      1.6697295214129966       -1.6697295214129966      1.6697098562924362       -1.6698149856179063      -1.6698346507384665
1.779599736756933         -2.9917157223966232E-5   0.559821802736209        3.704631102190788E-6     1.6794203924185858       1.6795400610474833       -1.6795104239986662      1.6793907553697687       -1.6793907553697687      1.6795104239986662       -1.6795400610474833      -1.6794203924185858
1.8184027585249607        4.933365816042247E-4     0.5784529582256225       -2.6189386017802822E-5   1.7362407902960024       1.734267443969587        -1.7344769590577296      1.7364503053841451       -1.7364503053841451      1.7344769590577296       -1.734267443969587       -1.7362407902960024
1.8187195876945088        4.976089820509518E-4     0.5786050828090307       -2.6433472591142837E-5   1.736704732500827        1.7347142965726248       -1.734925764353354       1.7369162002815566       -1.7369162002815566      1.734925764353354        -1.7347142965726248      -1.736704732500827
1.848832287380775         -8.955776451171748E-7    0.5935590741723396       1.2637402223362277E-5    1.7807259809706193       1.780729563281202        -1.7806284640634147      1.780624881752833        -1.780624881752833       1.7806284640634147       -1.780729563281202       -1.7807259809706193