% Model:              Prism_potential.mph
% Version:            COMSOL 6.2.0.339
% Date:               May 6 2024, 20:12
% Dimension:          1
% Nodes:              751
% Expressions:        11
% Description:        Line graph
% Arc length (m)          Magnetic scalar potential Magnetic scalar potential Magnetic scalar potential Magnetic scalar potential Magnetic scalar potential Magnetic scalar potential Magnetic scalar potential Magnetic scalar potential Magnetic scalar potential Magnetic scalar potential Magnetic scalar potential
0                         -2.1477070312679957E-6   1.7213087679799794E-5    1.4805998816487248E-5    1.0656784424210873E-4    1.1515867236798216E-4    3.2893181635747253E-6    -1.1880146289583257E-5   1.1880146289583257E-5    -3.2893181635747253E-6   -1.1515867236798216E-4   -1.0656784424210873E-4
0.021230305094061284      0.008140363791749535     -0.002277869536703375    0.001607987796564494     0.015879070159646215     -0.016682385007351183    0.02954628737986674      0.003015167787130544     -0.003015167787130544    -0.02954628737986674     0.016682385007351183     -0.015879070159646215
0.05797659231277259       0.022232972726456652     -0.006253887839535081    0.00436554482960613      0.04316646125273189      -0.045765429653094075    0.08068978828994264      0.008242102615883205     -0.008242102615883205    -0.08068978828994264     0.045765429653094075     -0.04316646125273189
0.09151461887461329       0.03509517809606939      -0.009882766225453575    0.006882343886596257     0.0680714330621624       -0.07230927932211462     0.1273680304148841       0.01301268196939278      -0.01301268196939278     -0.1273680304148841      0.07230927932211462      -0.0680714330621624
0.11142490520565565       0.04273193030473457      -0.01202777474416291     0.008374271193297927     0.08287762115017144      -0.08805010006876632     0.1550442696151491       0.015883451603788467     -0.015883451603788467    -0.1550442696151491      0.08805010006876632      -0.08287762115017144
0.13477781154903          0.05168079376552373      -0.01455109188481956     0.010125585394471765     0.10021065345447516      -0.1065125216076192      0.18751720476339273      0.019205970298701466     -0.019205970298701466    -0.18751720476339273     0.1065125216076192       -0.10021065345447516
0.18976953881474265       0.07275210311805232      -0.020476971704715536    0.014243689838329986     0.14104805047527724      -0.14996036199693139     0.2639098807035707       0.027098531768637846     -0.027098531768637846    -0.2639098807035707      0.14996036199693139      -0.14104805047527724
0.1907100756071452        0.07311249081081175      -0.020578323458426362    0.014314122773191076     0.14174650233910802      -0.1507034609041384      0.2652164430896664       0.027233520153579913     -0.027233520153579913    -0.2652164430896664      0.1507034609041384       -0.14174650233910802
0.19107453263141122       0.07325172397895068      -0.020617190934539075    0.014341269678431703     0.14201695386801025      -0.15098994204779184     0.2657200994752449       0.027286796440557107     -0.027286796440557107    -0.2657200994752449      0.15098994204779184      -0.14201695386801025
0.22063889965153835       0.0845461708140015       -0.023770079347805922    0.016543397821278543     0.16395569486969874      -0.17422898838630668     0.30657617095653444      0.03160851229947088      -0.03160851229947088     -0.30657617095653444     0.17422898838630668      -0.16395569486969874
0.241320942887282         0.09243355529455216      -0.025971550216293895    0.01809436377539184      0.17932991504178927      -0.19040430613641873     0.335159216339553        0.03457500483865507      -0.03457500483865507     -0.335159216339553       0.19040430613641873      -0.17932991504178927
0.2613179462736681        0.10009383596293754      -0.02810205980075203     0.019586792493512573     0.19422866249766857      -0.206146681354081       0.36284102130218104      0.03753432254956854      -0.03753432254956854     -0.36284102130218104     0.206146681354081        -0.19422866249766857
0.2741352635181556        0.10501508788619307      -0.029482183096753625    0.020542037113815265     0.20375177493738558      -0.21630857660738606     0.3806448735179076       0.039415478026864        -0.039415478026864       -0.3806448735179076      0.21630857660738606      -0.20375177493738558
0.289905532339677         0.11107013546657091      -0.03118026975323786     0.021717358295708047     0.21546889485625967      -0.22881164701002338     0.40255051337568704      0.041730028490595886     -0.041730028490595886    -0.40255051337568704     0.22881164701002338      -0.21546889485625967
0.2967759020892642        0.11368854547552829      -0.03190361344269746     0.02222540417545939      0.22056786732480102      -0.23418631457731157     0.411989547980986        0.04276463392112647      -0.04276463392112647     -0.411989547980986       0.23418631457731157      -0.22056786732480102
0.3048229309792211        0.11675911407743252      -0.03275735745518096     0.022825894673861112     0.22654973448476587      -0.24048672182496367     0.42309387921585184      0.043942577093877534     -0.043942577093877534    -0.42309387921585184     0.24048672182496367      -0.22654973448476587
0.32257886741671593       0.12353438749423656      -0.03464116135682573     0.02415088943487753      0.23974884865750534      -0.25438870131944036     0.44759581679846006      0.04654173317848567      -0.04654173317848567     -0.44759581679846006     0.25438870131944036      -0.23974884865750534
0.383176613867264         0.14671949377858398      -0.04101233931592159     0.028641064965113927     0.2849662294698581       -0.30191174564447726     0.5310402653653881       0.05583770974894733      -0.05583770974894733     -0.5310402653653881      0.30191174564447726      -0.2849662294698581
0.3878717862214921        0.14851369018568575      -0.041503179783356624    0.028989342069594127     0.28847520929967735      -0.3055795514430651      0.5374942879998175       0.05656047274292496      -0.05656047274292496     -0.5374942879998175      0.3055795514430651       -0.28847520929967735
0.3891009890722089        0.1489830310535774       -0.04163430711975421     0.029082386937542285     0.28939268849806055      -0.30653943571624853     0.5391985312165862       0.05673359299772289      -0.05673359299772289     -0.5391985312165862      0.30653943571624853      -0.28939268849806055
0.40383679194614996       0.15456760853286197      -0.04318560285627305     0.03018241989328926      0.30030808807006104      -0.3179623460613863      0.5594217052076997       0.05884872892374757      -0.05884872892374757     -0.5594217052076997      0.3179623460613863       -0.30030808807006104
0.4094772143298502        0.1567109695345831       -0.04378546314552663     0.03060196402654567      0.30447340573876824      -0.3223704723995637      0.5671861846119284       0.059657693526403474     -0.059657693526403474    -0.5671861846119284      0.3223704723995637       -0.30447340573876824
0.4193539725517886        0.16046584990932816      -0.04480631445008018     0.031333003308356915     0.3118447697018426       -0.3300186299354695      0.5806826564023242       0.06118074323498793      -0.06118074323498793     -0.5806826564023242      0.3300186299354695       -0.3118447697018426
0.4505510023448697        0.1723391050509371       -0.04802352085693382     0.03363456885569453      0.33514592295385004      -0.35421049724989784     0.6232870480954533       0.06606937210829456      -0.06606937210829456     -0.6232870480954533      0.35421049724989784      -0.33514592295385004
0.49331216019739405       0.1886135433773138       -0.05243328268105883     0.036789279683308695     0.36708435744468504      -0.3873698160645697      0.6816840535310384       0.07277011997821627      -0.07277011997821627     -0.6816840535310384      0.3873698160645697       -0.36708435744468504
0.5263378602345903        0.20112752301486175      -0.05582416409605717     0.039215677944825715     0.39164526552085405      -0.4128648265385926      0.7265902500971974       0.07791984196224912      -0.07791984196224912     -0.7265902500971974      0.4128648265385926       -0.39164526552085405
0.5616420530531678        0.21453186668848326      -0.05941672151314087     0.041777846307734255     0.41792495406848007      -0.4402025126854525      0.7744252831473255       0.0837021836066069       -0.0837021836066069      -0.7744252831473255      0.4402025126854525       -0.41792495406848007
0.5874919025372727        0.22433889785292144      -0.0620254260046398      0.04365760212501728      0.4372319261919917       -0.46012366521969356     0.8093844822198306       0.08797110919185436      -0.08797110919185436     -0.8093844822198306      0.46012366521969356      -0.4372319261919917
0.6013239118401674        0.22955350159708926      -0.06337695979969613     0.04464608837354837      0.44756047728928283      -0.47065352909907376     0.8278222360874598       0.09039177030089664      -0.09039177030089664     -0.8278222360874598      0.47065352909907376      -0.44756047728928283
0.6469959986396006        0.24676839933899453      -0.06798433063589716     0.04795653298995857      0.481409938730131        -0.5056636586258466      0.8893159225455142       0.09775767481046325      -0.09775767481046325     -0.8893159225455142      0.5056636586258466       -0.481409938730131
0.6476105655344517        0.24700030694933925      -0.06804596811714837     0.048001204334120966     0.4818675268837164       -0.5061337009136401      0.8901433355866069       0.09785789221074952      -0.09785789221074952     -0.8901433355866069      0.5061337009136401       -0.4818675268837164
0.6477145553260907        0.24703923239600362      -0.06805616301495554     0.04800886844693647      0.48194544953488566      -0.5062114800491283      0.8902824276246192       0.0978745019593947       -0.0978745019593947      -0.8902824276246192      0.5062114800491283       -0.48194544953488566
0.6481682174481391        0.2472110459230857       -0.06810068270004839     0.048041579135080816     0.48228636028634875      -0.5065578234059938      0.8908904564866392       0.097953727205703        -0.097953727205703       -0.8908904564866392      0.5065578234059938       -0.48228636028634875
0.6756305051589232        0.25760209569949466      -0.07077746230595122     0.050036081621538664     0.5030161309672895       -0.5273922518306888      0.927680904802997        0.10272747799498111      -0.10272747799498111     -0.927680904802997       0.5273922518306888       -0.5030161309672895
0.6817309416364951        0.2599103498319927       -0.07137207860748596     0.05047913778099389      0.5076210149655023       -0.5320203843624681      0.9358534866104182       0.10378791271755203      -0.10378791271755203     -0.9358534866104182      0.5320203843624681       -0.5076210149655023
0.6910067296098406        0.2633337589696738       -0.07231035205048153     0.051140199000926055     0.5142972577916063       -0.5390377780870883      0.9481593700944957       0.10517566578419882      -0.10517566578419882     -0.9481593700944957      0.5390377780870883       -0.5142972577916063
0.695535106241129         0.2650050440381726       -0.07276841076691926     0.051462924594567666     0.5175565541538572       -0.5424636219988326      0.9541670187553729       0.10585315739731677      -0.10585315739731677     -0.9541670187553729      0.5424636219988326       -0.5175565541538572
0.7031361362737076        0.26784153806227423      -0.07351843231406857     0.052007972100396635     0.5231596675839283       -0.548206484665168       0.96427026146834         0.10709589078075629      -0.10709589078075629     -0.96427026146834        0.548206484665168        -0.5231596675839283
0.7096847047177681        0.2703361761876507       -0.07411187959683675     0.05247189585439717      0.5282242970023789       -0.5531204077482232      0.9728955745833996       0.10844913016720255      -0.10844913016720255     -0.9728955745833996      0.5531204077482232       -0.5282242970023789
0.7157360474139267        0.27264139912736757      -0.07466026706668008     0.05290059437749066      0.5329043745646567       -0.557661221944813       0.9808659769647373       0.10969961954473237      -0.10969961954473237     -0.9808659769647373      0.557661221944813        -0.5329043745646567
0.7411684719289318        0.28220359416981233      -0.0770842351013018      0.05473587926386418      0.5520980000911752       -0.5767163765880738      1.0146034106989863       0.11421096598026267      -0.11421096598026267     -1.0146034106989863      0.5767163765880738       -0.5520980000911752
0.7663293044944128        0.29173945972303494      -0.07950233816961871     0.05654058847509476      0.571134258837592        -0.5958235800545474      1.0481482878553046       0.11880955103683481      -0.11880955103683481     -1.0481482878553046      0.5958235800545474       -0.571134258837592
0.7713321134120582        0.2935971351920376       -0.07996533672048761     0.05688772924852012      0.5748491772166919       -0.5995393635514579      1.054641197539618        0.11974734322853195      -0.11974734322853195     -1.054641197539618       0.5995393635514579       -0.5748491772166919
0.7889369536869273        0.30020618495046647      -0.08162409490392139     0.05813956053749807      0.5880983273391601       -0.6127264124627051      1.0778428967626887       0.12298184303917647      -0.12298184303917647     -1.0778428967626887      0.6127264124627051       -0.5880983273391601
0.8157353273477074        0.3102665877830837       -0.08414908353877945     0.06004511844762439      0.6082663987403257       -0.6327999523920083      1.1131608999730025       0.12790545115933136      -0.12790545115933136     -1.1131608999730025      0.6327999523920083       -0.6082663987403257
0.8315324766345049        0.31620210033410023      -0.08554264780448233     0.06119495119442178      0.6205560620324396       -0.6442523393039604      1.133811948859334        0.13099645247706615      -0.13099645247706615     -1.133811948859334       0.6442523393039604       -0.6205560620324396
0.8489534246101935        0.32272692251874013      -0.08712681175397902     0.062399406360492335     0.6336710352175114       -0.6572366548574482      1.1564319057413859       0.13447578433357363      -0.13447578433357363     -1.1564319057413859      0.6572366548574482       -0.6336710352175114
0.8674672055349633        0.32962638259458427      -0.0888873046847786      0.06362954065427526      0.6471090137519326       -0.6713965166264035      1.1804328418606045       0.13807268851773155      -0.13807268851773155     -1.1804328418606045      0.6713965166264035       -0.6471090137519326
0.8701208747964968        0.3306156857743712       -0.0891311431401983      0.0638167042530383       0.6491047591402999       -0.6733579839571844      1.1838916179814898       0.13857112511599434      -0.13857112511599434     -1.1838916179814898      0.6733579839571844       -0.6491047591402999
0.8902393394527037        0.3381159652347126       -0.09097977417282008     0.06523566188322426      0.6642352554838611       -0.6882286054549885      1.210113900520782        0.14234996041806774      -0.14234996041806774     -1.210113900520782       0.6882286054549885       -0.6642352554838611
0.91578176905935          0.3476011391544741       -0.09318365639356833     0.06699062040082994      0.683613790731562        -0.7067907658863337      1.2427157290929725       0.14768882752492335      -0.14768882752492335     -1.2427157290929725      0.7067907658863337       -0.683613790731562
0.9523987787926872        0.36132519677894426      -0.0964110309863882      0.06950039264668523      0.7114188711854635       -0.7338819159303123      1.2898850571037932       0.15541573001198267      -0.15541573001198267     -1.2898850571037932      0.7338819159303123       -0.7114188711854635
1.001848147792297         0.37953569371023416      -0.10068661122986973     0.0728973584037973       0.7486009873460475       -0.7695417874948884      1.3527206547252657       0.16542212011566954      -0.16542212011566954     -1.3527206547252657      0.7695417874948884       -0.7486009873460475
1.0342971142420458        0.3914855287821709       -0.10349227210443081     0.07512646729059311      0.773000110413421        -0.792942004715262       1.3939537430400053       0.17198837208867648      -0.17198837208867648     -1.3939537430400053      0.792942004715262        -0.773000110413421
1.0545004624735348        0.39904243966312136      -0.10517505865883806     0.0764727018174394       0.7884505106194855       -0.8077192480329995      1.4195008625725132       0.1766688960799706       -0.1766688960799706      -1.4195008625725132      0.8077192480329995       -0.7884505106194855
1.0851646311935683        0.4103762504082067       -0.10754660760367916     0.07849422319782161      0.8120895707966618       -0.8294154308361648      1.4573692164187357       0.1841357852140891       -0.1841357852140891      -1.4573692164187357      0.8294154308361648       -0.8120895707966618
1.087939865093512         0.41141137375596         -0.10776501876556883     0.07867328855598661      0.8142208454391593       -0.8314246495846802      1.4608109580325712       0.18483453699126656      -0.18483453699126656     -1.4608109580325712      0.8314246495846802       -0.8142208454391593
1.0899909945669397        0.4121570709345896       -0.10793386616652581     0.07880957760158683      0.8157508537759484       -0.8328774299624094      1.463354050775102        0.18527423296325393      -0.18527423296325393     -1.463354050775102       0.8328774299624094       -0.8157508537759484
1.0900428591164184        0.4121759265206061       -0.10793813561635565     0.07881302378576999      0.8157895413352245       -0.8329141647471994      1.4634183550333573       0.1852853510490648       -0.1852853510490648      -1.4634183550333573      0.8329141647471994       -0.8157895413352245
1.174068106769501         0.442996823754502        -0.11474630223614907     0.084270399395138        0.8788363383811073       -0.8931509566368985      1.5673141517980003       0.20467314322000435      -0.20467314322000435     -1.5673141517980003      0.8931509566368985       -0.8788363383811073
1.1748691858731868        0.4432921723982769       -0.1148109734793385      0.08432288263894185      0.8794429549143041       -0.893725734678801       1.5683087957903337       0.2048598938027703       -0.2048598938027703      -1.5683087957903337      0.893725734678801        -0.8794429549143041
1.1896743687621427        0.4487506728971303       -0.11600619824387154     0.08529285429286013      0.8906541682340847       -0.9043485233544337      1.5866913576973127       0.20831133389120493      -0.20831133389120493     -1.5866913576973127      0.9043485233544337       -0.8906541682340847
1.2124640829016013        0.4571044305067585       -0.1177043666720246      0.08675313023679877      0.9081082819446362       -0.9203094400823945      1.614334481976782        0.21408324005024718      -0.21408324005024718     -1.614334481976782       0.9203094400823945       -0.9081082819446362
1.2302332836106253        0.4635081123242921       -0.11901609618584089     0.08789856928446037      0.9215622132289009       -0.9324702360682642      1.6356587903439443       0.21837365895321903      -0.21837365895321903     -1.6356587903439443      0.9324702360682642       -0.9215622132289009
1.2384465578466453        0.466468020074161        -0.11962240337978139     0.08842801375262443      0.9277808850194733       -0.9380911952771673      1.6455153052981601       0.220356774998479        -0.220356774998479       -1.6455153052981601      0.9380911952771673       -0.9277808850194733
1.2940086457935687        0.4868348926137206       -0.12348055322228703     0.09184499832526014      0.9706081188616187       -0.9767314515932609      1.7114914381953403       0.2358481322595384       -0.2358481322595384      -1.7114914381953403      0.9767314515932609       -0.9706081188616187
1.326781830120919         0.4988319899836925       -0.12575255663472273     0.09389403808293051      0.9959824623949367       -0.9993454975398308      1.7504978022032736       0.24483015773149353      -0.24483015773149353     -1.7504978022032736      0.9993454975398308       -0.9959824623949367
1.3423513663293587        0.5045145686185488       -0.12681499614296596     0.09486664626250703      1.0080507338582259       -1.010007540615967       1.7689407107160222       0.2491175637581704       -0.2491175637581704      -1.7689407107160222      1.010007540615967        -1.0080507338582259
1.389705691103872         0.5216077686640264       -0.12995266533016597     0.09778270650561001      1.044488367359993        -1.0419427072961107      1.8242043593409898       0.2622267153151139       -0.2622267153151139      -1.8242043593409898      1.0419427072961107       -1.044488367359993
1.4081091955380383        0.528250768734853        -0.13117207050750812     0.09891598689488343      1.0586492735267135       -1.0543538014126963      1.8456816965717633       0.26732137836764686      -0.26732137836764686     -1.8456816965717633      1.0543538014126963       -1.0586492735267135
1.4466697832214055        0.5419844558293635       -0.1336596190613814      0.1012034934836619       1.0878040284092276       -1.0801337949082233      1.8897617427775177       0.27817608053993387      -0.27817608053993387     -1.8897617427775177      1.0801337949082233       -1.0878040284092276
1.4589597275239563        0.5463616258778633       -0.13445244497544753     0.10193256246981564      1.0970961667086443       -1.0883503368028067      1.9038108365613309       0.28163566695012043      -0.28163566695012043     -1.9038108365613309      1.0883503368028067       -1.0970961667086443
1.486138907700789         0.5562607577848745       -0.13599929243642697     0.10349063283306777      1.1184861695927368       -1.106556861546759       1.9344819242113003       0.29056110692819637      -0.29056110692819637     -1.9344819242113003      1.106556861546759        -1.1184861695927368
1.4984204211851373        0.5607303112752924       -0.1366902734768275      0.10417948240765489      1.128107731750719        -1.1148135133504475      1.948249372611686        0.294671872489482        -0.294671872489482       -1.948249372611686       1.1148135133504475       -1.128107731750719
1.5242060575603245        0.5701143567522804       -0.13814102186159483     0.10562575567602231      1.148308670623863        -1.1321487563852564      1.977154801793434        0.3033026252156866       -0.3033026252156866      -1.977154801793434       1.1321487563852564       -1.148308670623863
1.5774141112215232        0.5890934566552275       -0.14110814450233786     0.10860465874696924      1.1892811147913167       -1.1670927118295928      2.035929981805345        0.32044384481556454      -0.32044384481556454     -2.035929981805345       1.1670927118295928       -1.1892811147913167
1.5885063080990691        0.5930240436316452       -0.14171776891851173     0.10922570547644406      1.1977976024135297       -1.174298572113051       2.0481042159246012       0.32399195860197916      -0.32399195860197916     -2.0481042159246012      1.174298572113051        -1.1977976024135297
1.6300732128235724        0.6078559294457035       -0.14387256971226953     0.11142177738351991      1.2297812592886774       -1.2016424584941388      2.0930166775622956       0.3384070402205202       -0.3384070402205202      -2.0930166775622956      1.2016424584941388       -1.2297812592886774
1.6549359796373455        0.6166339577916228       -0.14521453512498905     0.11274593770717464      1.2486080610369763       -1.2179277701295164      2.119895271786912        0.3466405593795814       -0.3466405593795814      -2.119895271786912       1.2179277701295164       -1.2486080610369763
1.656246736145262         0.6171034629751478       -0.1452712682792702      0.11281596611191157      1.2496569855601307       -1.218756866340462       2.1212845952357533       0.3471292566648403       -0.3471292566648403      -2.1212845952357533      1.218756866340462        -1.2496569855601307
1.6614702790234863        0.6189745049595895       -0.1454973576118157      0.11309503882498052      1.2538370923836537       -1.222060927454706       2.126821238054549        0.3490767817838114       -0.3490767817838114      -2.126821238054549       1.222060927454706        -1.2538370923836537
1.670762363427984         0.622231871770273        -0.14597710181914997     0.11358026457377457      1.260853496378194        -1.2280739907028995      2.1367161072930947       0.3522113797879993       -0.3522113797879993      -2.1367161072930947      1.2280739907028995       -1.260853496378194
1.6817030058842142        0.6261505466980049       -0.14631806992424748     0.11418112290620014      1.2700713752480675       -1.2345308115439537      2.1479797947935535       0.356622391998468        -0.356622391998468       -2.1479797947935535      1.2345308115439537       -1.2700713752480675
1.7409835102074593        0.6119611088531779       -0.1486896678733167      0.11707430068558176      1.2461504168287316       -1.2016940185839804      2.138288424068633        0.3095560113440794       -0.3095560113440794      -2.138288424068633       1.2016940185839804       -1.2461504168287316
1.7491328669498971        0.6100250218489529       -0.14902323467791986     0.11748101873784815      1.2429044146155377       -1.1971956727802744      2.137043822683058        0.3030562647127544       -0.3030562647127544      -2.137043822683058       1.1971956727802744       -1.2429044146155377
1.7816707544424657        0.6022948189494727       -0.15035506484592726     0.1191049194510081       1.2299441211651947       -1.179235154632696       2.1320745102407592       0.2771047655571315       -0.2771047655571315      -2.1320745102407592      1.179235154632696        -1.2299441211651947
1.8146333303979598        0.5944607553965133       -0.1517694610780928      0.1207241243504284       1.2165096249604597       -1.161333396625592       2.1271263914290173       0.25071663015703416      -0.25071663015703416     -2.1271263914290173      1.161333396625592        -1.2165096249604597
1.8256699924834594        0.5918901077900912       -0.15215572697801028     0.12125121277324552      1.2123178857391315       -1.1552425454212318      2.125252247607194        0.24230818355316902      -0.24230818355316902     -2.125252247607194       1.1552425454212318       -1.2123178857391315
1.8338110700946744        0.5900776438514518       -0.15248264815481122     0.12163934638215312      1.2092647287670804       -1.1510458466387254      2.124160617695949        0.23614995770985708      -0.23614995770985708     -2.124160617695949       1.1510458466387254       -1.2092647287670804
1.836854888183106         0.5893619658798964       -0.15260101463430154     0.12177865707419862      1.2080355161536807       -1.1494123473659037      2.123641603959491        0.23380625956009332      -0.23380625956009332     -2.123641603959491       1.1494123473659037       -1.2080355161536807
1.8421326890962904        0.5880907109999158       -0.1527351199884245      0.12199918368185522      1.2059727967619769       -1.1463900472376851      2.122383516692525        0.22997932730713683      -0.22997932730713683     -2.122383516692525       1.1463900472376851       -1.2059727967619769
1.8464522371791137        0.5870750748751792       -0.15284657463375734     0.12221944739295046      1.2044882154208865       -1.1438120840798294      2.121567663223431        0.22673263627728424      -0.22673263627728424     -2.121567663223431       1.1438120840798294       -1.2044882154208865
1.8514222729730507        0.5859064924686935       -0.15297481341385272     0.12247288097147732      1.2027800685817367       -1.1408459012930368      2.1206289490648533       0.22299702080991948      -0.22299702080991948     -2.1206289490648533      1.1408459012930368       -1.2027800685817367
1.8839765426342585        0.5780383033380693       -0.15395622292603892     0.12387823948995243      1.1897208958578298       -1.1224323174944464      2.1134582334140637       0.19869497993821178      -0.19869497993821178     -2.1134582334140637      1.1224323174944464       -1.1897208958578298
1.9068450598430577        0.5725111076611782       -0.154645637265598       0.12486546684288483      1.1805471708971003       -1.1094972597476116      2.108420994490688        0.1816234361540228       -0.1816234361540228      -2.108420994490688       1.1094972597476116       -1.1805471708971003
1.9347988228318684        0.5658527343353474       -0.15547922534520953     0.1261240694660763       1.1697640704993701       -1.0936468668420192      2.1026394225706273       0.16077151477076107      -0.16077151477076107     -2.1026394225706273      1.0936468668420192       -1.1697640704993701
1.9508375450586284        0.561888803170646        -0.15596675687006278     0.12681962050398202      1.1631558177470303       -1.084399394935553       2.0989563589674067       0.14859885371517537      -0.14859885371517537     -2.0989563589674067      1.084399394935553        -1.1631558177470303
1.9785828382126154        0.5552329173512682       -0.15679463618322056     0.1279405027712595       1.1518439372379115       -1.0690877321671608      2.0926117543372342       0.1283199150678364       -0.1283199150678364      -2.0926117543372342      1.0690877321671608       -1.1518439372379115
2.013527071350462         0.5466381181202797       -0.15761261022094158     0.12932451924694038      1.1377364825654948       -1.0488159899156233      2.0834121438911444       0.10314032858997264      -0.10314032858997264     -2.0834121438911444      1.0488159899156233       -1.1377364825654948