% Model:              Prism_potential.mph
% Version:            COMSOL 6.2.0.339
% Date:               May 6 2024, 20:12
% Dimension:          1
% Nodes:              783
% Expressions:        11
% Description:        Line graph
% Arc length (m)          Magnetic scalar potential Magnetic scalar potential Magnetic scalar potential Magnetic scalar potential Magnetic scalar potential Magnetic scalar potential Magnetic scalar potential Magnetic scalar potential Magnetic scalar potential Magnetic scalar potential Magnetic scalar potential
1.8823918118693328E-15    -2.1477070319910027E-6   1.7213087680003963E-5    1.4805998816628532E-5    1.065678442418404E-4     1.1515867237060621E-4    3.289318162081386E-6     -1.1880146290981527E-5   1.1880146290981527E-5    -3.289318162081386E-6    -1.1515867237060621E-4   -1.065678442418404E-4
0.0044946151052369125     -0.001725686157652406    5.050202149971727E-4     3.52301894207463E-4      -5.271040934841501E-4    0.0063756405371262715    -0.0035572253834669086   -0.0033455192471436228   0.0033455192471436228    0.0035572253834669086    -0.0063756405371262715   5.271040934841501E-4
0.02169944216105473       -0.00832272239621904     0.002364957781124165     0.001643340786245615     -0.002977208304083756    0.030313681280793123     -0.01716695499082855     -0.016123934594048504    0.016123934594048504     0.01716695499082855      -0.030313681280793123    0.002977208304083756
0.02454950523914756       -0.009415869268380447    0.0026732203682155904    0.001857195471247106     -0.0033832955471263214   0.034280181526396176     -0.01942261775641968     -0.018240859317103002    0.018240859317103002     0.01942261775641968      -0.034280181526396176    0.0033832955471263214
0.028751452071460615      -0.011026646777472091    0.0031269340684239207    0.002172644044982329     -0.003981915169743707    0.04012467194014534      -0.022743519580287065    -0.021363067529602178    0.021363067529602178     0.022743519580287065     -0.04012467194014534     0.003981915169743707
0.10203073458488306       -0.03912319364451736     0.011046359529901264     0.0076720437871060886    -0.014419133550906895    0.14207364102716274      -0.08069729073031456     -0.07579548384775552     0.07579548384775552      0.08069729073031456      -0.14207364102716274     0.014419133550906895
0.1036965613017714        -0.039760012405109554    0.011226640515933427     0.007796730460205428     -0.01465318142159744     0.144386868198841        -0.08201302451719808     -0.07702702510324078     0.07702702510324078      0.08201302451719808      -0.144386868198841       0.01465318142159744
0.11919847285909568       -0.0456861438596376      0.012904305949321453     0.00895704429067003      -0.016831192708631048    0.16591338272991965      -0.09425702840455993     -0.08848754703399123     0.08848754703399123      0.09425702840455993      -0.16591338272991965     0.016831192708631048
0.1231802678412573        -0.047210648693764075    0.01333422919727686      0.009255874793092459     -0.01739511062332806     0.17144748415172853      -0.09740048580698937     -0.09144210896806768     0.09144210896806768      0.09740048580698937      -0.17144748415172853     0.01739511062332806
0.12638358348991324       -0.04844074394784677     0.013677075999754495     0.00949554316099288      -0.017868087252458868    0.1758948885389285       -0.099930543250986       -0.09383243254040183     0.09383243254040183      0.099930543250986        -0.1758948885389285      0.017868087252458868
0.15303172759483163       -0.05867381467483726     0.016529192993647343     0.011489326448593882     -0.02180274457435739     0.21289251412499194      -0.1209779025362416      -0.11371735616310827     0.11371735616310827      0.1209779025362416       -0.21289251412499194     0.02180274457435739
0.20134266564752024       -0.07719271348001766     0.02173076630493554      0.015110974963565244     -0.02874922819096832     0.28002162572910283      -0.15913382602058163     -0.14963702789949004     0.14963702789949004      0.15913382602058163      -0.28002162572910283     0.02874922819096832
0.22310800464218522       -0.08553427526347912     0.02408493530870882      0.016740435069377287     -0.03185200432332322     0.3102850967305938       -0.17636161617557616     -0.16577548487834126     0.16577548487834126      0.17636161617557616      -0.3102850967305938      0.03185200432332322
0.25874817869572286       -0.09917993595150146     0.02789924581023759      0.019412699460656553     -0.03701133662966444     0.3597084071763424       -0.2044068114910903      -0.19231293231491664     0.19231293231491664      0.2044068114910903       -0.3597084071763424      0.03701133662966444
0.27923537608093374       -0.1070392601223856      0.030066863228728095     0.02092713244295451      -0.04016940078676938     0.387987639702774        -0.22057058015913808     -0.20758646033040523     0.20758646033040523      0.22057058015913808      -0.387987639702774       0.04016940078676938
0.3006545967101575        -0.11525612821066189     0.03233309197897735      0.02251046146381068      -0.04347113462914955     0.417553378213499        -0.23746968650301362     -0.22355482633963475     0.22355482633963475      0.23746968650301362      -0.417553378213499       0.04347113462914955
0.33494408337726767       -0.1283357094933889      0.03599452029077792      0.025082526355721564     -0.048357752691558495    0.46498508528199783      -0.26432487443622554     -0.24901796353733044     0.24901796353733044      0.26432487443622554      -0.46498508528199783     0.048357752691558495
0.3431056377893581        -0.13145458913316352     0.036860086095633016     0.025693685072580824     -0.04955417968910537     0.47626417684354916      -0.27071469626290284     -0.2551036602697513      0.2551036602697513       0.27071469626290284      -0.47626417684354916     0.04955417968910537
0.37360311525855194       -0.14303659967859575     0.0400670708975238       0.027956068767518296     -0.054047711594547604    0.5180986871198356       -0.2944501369796897      -0.2776962617346934      0.2776962617346934       0.2944501369796897       -0.5180986871198356      0.054047711594547604
0.3999665277727944        -0.15304861860907848     0.04283933504115852      0.02991177656910226      -0.05793212581827312     0.5542623486180411       -0.31496813606522345     -0.29722633837109064     0.29722633837109064      0.31496813606522345      -0.5542623486180411      0.05793212581827312
0.4169615224775354        -0.15951634559574496     0.044599603392139836     0.031170244940530167     -0.060552901252950445    0.5775124811300296       -0.32815052160578884     -0.30991486077719127     0.30991486077719127      0.32815052160578884      -0.5775124811300296      0.060552901252950445
0.4274630968829932        -0.16354557703024564     0.04568147016263699      0.0319398492930406       -0.062287346400418594    0.5918949617205642       -0.33637616737623993     -0.3178061407447429      0.3178061407447429       0.33637616737623993      -0.5918949617205642      0.062287346400418594
0.43907979800165325       -0.16796203180792538     0.046922183727236104     0.03279751822381431      -0.06396743953888585     0.607880687692816        -0.3455005419023019      -0.3263475853293999      0.3263475853293999       0.3455005419023019       -0.607880687692816       0.06396743953888585
0.44678016211234994       -0.1708899170539469      0.04766941220381825      0.03336902223485392      -0.06529550855702403     0.6182641596587638       -0.35131198177993295     -0.3322476864358549      0.3322476864358549       0.35131198177993295      -0.6182641596587638      0.06529550855702403
0.4518923299514715        -0.17285653881293217     0.04817594228908292      0.03374219155616652      -0.06621648453395017     0.6252096707177787       -0.35527213826844706     -0.33615401698328184     0.33615401698328184      0.35527213826844706      -0.6252096707177787      0.06621648453395017
0.4721611447761506        -0.1805471035723725      0.050240406924788074     0.03521279991089768      -0.0695217867267907      0.6526666275626996       -0.37096422827551856     -0.3512241860139717      0.3512241860139717       0.37096422827551856      -0.6526666275626996      0.0695217867267907
0.4813313943318444        -0.1840376475163914      0.05117469673618575      0.03587742408308451      -0.07104150849188813     0.6651090815736778       -0.37808968890900213     -0.35806090115656375     0.35806090115656375      0.37808968890900213      -0.6651090815736778      0.07104150849188813
0.4847616829859785        -0.185340877272005       0.051525773825451274     0.03612942194225652      -0.07158674529863068     0.6697767637893894       -0.3807413882513378      -0.36062212083668244     0.36062212083668244      0.3807413882513378       -0.6697767637893894      0.07158674529863068
0.5586162408474322        -0.21347957439372248     0.059276085868010156     0.04154649175720547      -0.08294492415459341     0.7709733734202969       -0.43860143936265383     -0.41531685821223663     0.41531685821223663      0.43860143936265383      -0.7709733734202969      0.08294492415459341
0.5766651955466859        -0.22026038202119946     0.061056140131011155     0.04286199796557268      -0.08590435178707549     0.7951371762977228       -0.45224119257314194     -0.4288003355116564      0.4288003355116564       0.45224119257314194      -0.7951371762977228      0.08590435178707549
0.6253151351977188        -0.23853766662625514     0.0658541760235907       0.04640787077172859      -0.09388132209482436     0.8602693444101965       -0.48900637823636817     -0.4651442882686525      0.4651442882686525       0.48900637823636817      -0.8602693444101965      0.09388132209482436
0.6506266606815518        -0.24818963693497648     0.06835274542046813      0.048236259558932786     -0.0983759993728178      0.894382548367088        -0.5084924718956262      -0.4842660758442796      0.4842660758442796       0.5084924718956262       -0.894382548367088       0.0983759993728178
0.6596147541063138        -0.2516157744630164      0.06925013045462165      0.04888715202623801      -0.09993254945721629     0.9065305483948494       -0.5154333321849459      -0.49102976566711987     0.49102976566711987      0.5154333321849459       -0.9065305483948494      0.09993254945721629
0.6704523195825145        -0.25574690528641303     0.07033216961525258      0.049671978062085884     -0.10180938947872523     0.9211782316669269       -0.5238024071702404      -0.4991852139754119      0.4991852139754119       0.5238024071702404       -0.9211782316669269      0.10180938947872523
0.680535474163899         -0.25958257853417704     0.07132026556115857      0.05039759831111791      -0.10361396714040705     0.9347163469963009       -0.5315355605073582      -0.5067947536293499      0.5067947536293499       0.5315355605073582       -0.9347163469963009      0.10361396714040705
0.6901868892266442        -0.2632156025620058      0.07223205519144915      0.05107853272087201      -0.10542090866617651     0.9474415015818468       -0.5388132398148713      -0.5140491704331521      0.5140491704331521       0.5388132398148713       -0.9474415015818468      0.10542090866617651
0.7153494493505543        -0.27268739347945603     0.07460921556051309      0.05285382193126095      -0.11013185255232949     0.980617721365495        -0.557787145915408       -0.5329624280024167      0.5329624280024167       0.557787145915408        -0.980617721365495       0.11013185255232949
0.7204685184490109        -0.27460854133804186     0.07510154537815086      0.053215569730489715     -0.1110501676196728      0.9873839977324951       -0.5616594398885779      -0.5367747254635901      0.5367747254635901       0.5616594398885779       -0.9873839977324951      0.1110501676196728
0.7231681064104585        -0.27562296902161704     0.07536348742977095      0.05341150229440165      -0.11150946657631526     0.9909824095101536       -0.5636903911549409      -0.5388014849315279      0.5388014849315279       0.5636903911549409       -0.9909824095101536      0.11150946657631526
0.7635208587801307        -0.2907863753254072      0.07927893041409993      0.05634025229092099      -0.11837495024483152     1.0447705510567977       -0.5940485327294309      -0.5690969685721992      0.5690969685721992       0.5940485327294309       -1.0447705510567977      0.11837495024483152
0.7839420956028935        -0.2983834529930693      0.08124928335411437      0.057776174875659295     -0.12191435642115896     1.0716194555511191       -0.6094100565458452      -0.584123755426433       0.584123755426433        0.6094100565458452       -1.0716194555511191      0.12191435642115896
0.788097416059192         -0.2999293090308063      0.08165021146384784      0.058068356908599295     -0.12263455603567244     1.0770826800875535       -0.6125358248187596      -0.5871814113044664      0.5871814113044664       0.6125358248187596       -1.0770826800875535      0.12263455603567244
0.7936431211508059        -0.3019945541351211      0.08221101699073756      0.05845162381326742      -0.12354956204496044     1.084428654495525        -0.6168156639893859      -0.5911625525510994      0.5911625525510994       0.6168156639893859       -1.084428654495525       0.12354956204496044
0.7998348748126153        -0.3042886679525155      0.08275734463379072      0.05888861592990377      -0.12475083828404443     1.0924038335260187       -0.621294906086789       -0.5958597657232743      0.5958597657232743       0.621294906086789        -1.0924038335260187      0.12475083828404443
0.8251737106387058        -0.3136636177985745      0.08509867223606091      0.060672576077014435     -0.12934091458090938     1.1253135566133896       -0.6399329479972748      -0.6147215231970249      0.6147215231970249       0.6399329479972748       -1.1253135566133896      0.12934091458090938
0.8831794863053408        -0.3354677911542258      0.09046720945217696      0.06470565033773876      -0.14071135260096646     1.2011598120159377       -0.6835146093140282      -0.6583565553028763      0.6583565553028763       0.6835146093140282       -1.2011598120159377      0.14071135260096646
0.8881920145911435        -0.3373519834512459      0.0909311278178897       0.0650541656119212       -0.14169392100113853     1.2077140128038457       -0.6872806879084767      -0.6621272458965081      0.6621272458965081       0.6872806879084767       -1.2077140128038457      0.14169392100113853
0.9104849427084676        -0.34568555697334724     0.09291128151200198      0.06657983472058207      -0.14631793052836095     1.2364242973650286       -0.7037856196003727      -0.6789566082930172      0.6789566082930172       0.7037856196003727       -1.2364242973650286      0.14631793052836095
0.9178005635830424        -0.34841798556568576     0.09355522583189776      0.06708274814305473      -0.1478393010634601      1.245832641199284        -0.7091706560548466      -0.6845012862078974      0.6845012862078974       0.7091706560548466       -1.245832641199284       0.1478393010634601
0.954806736722533         -0.3622400147977909      0.09681262741172458      0.06962674290512307      -0.15553517573991635     1.293424883451248        -0.7364109402102637      -0.7125491189808998      0.7125491189808998       0.7364109402102637       -1.293424883451248       0.15553517573991635
0.9566099297016459        -0.36290722227293637     0.09696720341310511      0.06974859361652258      -0.15591845984046768     1.2957104292512784       -0.7377216803190981      -0.7139072087726471      0.7139072087726471       0.7377216803190981       -1.2957104292512784      0.15591845984046768
0.9666203114287917        -0.3666112082549009      0.0978253283046716       0.07042504486104409      -0.15804625215161136     1.3083985808679932       -0.7449982219796407      -0.7214466110399628      0.7214466110399628       0.7449982219796407       -1.3083985808679932      0.15804625215161136
1.0392861594810887        -0.39333334486973787     0.10396559316173748      0.07542359105308376      -0.1730755460419292      1.4002578334370235       -0.796869105012354       -0.7764642744665982      0.7764642744665982       0.796869105012354        -1.4002578334370235      0.1730755460419292
1.0667956991323067        -0.4036358328507069      0.10626249356485465      0.07725758035831232      -0.1794538635736016      1.4350894678292279       -0.8170288249627293      -0.7975145064400994      0.7975145064400994       0.8170288249627293       -1.4350894678292279      0.1794538635736016
1.0911938665198209        -0.41260168363291744     0.10820116152481364      0.07887678788098262      -0.18509273116746436     1.4653140033642071       -0.8342997003163461      -0.8161070342153245      0.8161070342153245       0.8342997003163461       -1.4653140033642071      0.18509273116746436
1.0951688546490241        -0.4140669555088638      0.10850587163814221      0.07913397638927831      -0.18608039054618866     1.4701874314892687       -0.8371156203750418      -0.8191522016604142      0.8191522016604142       0.8371156203750418       -1.4701874314892687      0.18608039054618866
1.138127319764581         -0.4299229437923282      0.111953422681451        0.08194066970277478      -0.19622294072920496     1.5234688344401106       -0.8679434768179111      -0.8517482983514024      0.8517482983514024       0.8679434768179111       -1.5234688344401106      0.19622294072920496
1.1720582348078334        -0.4424468593914029      0.11467648462612512      0.08415754761301986      -0.2042340744523515      1.5655533631132634       -0.8922929822091026      -0.8774944553565095      0.8774944553565095       0.8922929822091026       -1.5655533631132634      0.2042340744523515
1.1851331643680898        -0.44724452179566865     0.11570549835118468      0.08499562682724063      -0.20739004122882126     1.581588045953857        -0.9016230313359298      -0.8873550558467452      0.8873550558467452       0.9016230313359298       -1.581588045953857       0.20739004122882126
1.2105869609600277        -0.4564643453215267      0.11756472454167569      0.08661999362839976      -0.213754542504428       1.6121028387816825       -0.9191428897544822      -0.9067144915316252      0.9067144915316252       0.9191428897544822       -1.6121028387816825      0.213754542504428
1.2130690249654608        -0.4573594607793948      0.11774719201018244      0.08677970500392676      -0.21435852551253606     1.615079317605047        -0.9208416775736308      -0.9085961655439494      0.9085961655439494       0.9208416775736308       -1.615079317605047       0.21435852551253606
1.24732713501208          -0.46971408330039255     0.12026565672436759      0.08898408404754737      -0.2226948602374938      1.6561614729640803       -0.9442888005836991      -0.9345675326178724      0.9345675326178724       0.9442888005836991       -1.6561614729640803      0.2226948602374938
1.2590580337435817        -0.47397097859429566     0.12114612002116878      0.08973018059994847      -0.22558287472529198     1.6703010396518942       -0.9524595948523045      -0.9434243195248795      0.9434243195248795       0.9524595948523045       -1.6703010396518942      0.22558287472529198
1.26127725441316          -0.474776286886583       0.12131268375953091      0.08987132518984622      -0.22612922173518926     1.6729759258111463       -0.9540053242923744      -0.9450998232539589      0.9450998232539589       0.9540053242923744       -1.6729759258111463      0.22612922173518926
1.2821768464405672        -0.4824991900309178      0.12292745567634235      0.09114907618193653      -0.23161970830506354     1.6983770518186112       -0.9691844423631172      -0.960812317760556       0.960812317760556        0.9691844423631172       -1.6983770518186112      0.23161970830506354
1.2825533936400912        -0.4826383332997138      0.12295654896401743      0.09117209737570575      -0.23171863020455324     1.6988347029943054       -0.9694579239886574      -0.9610954092101995      0.9610954092101995       0.9694579239886574       -1.6988347029943054      0.23171863020455324
1.2844017165969719        -0.48331168819989323     0.12309640876635505      0.09128459163387101      -0.23219578356523835     1.701050969234338        -0.970774236163368       -0.9624725166362065      0.9624725166362065       0.970774236163368        -1.701050969234338       0.23219578356523835
1.2858257164481357        -0.48383396357854164     0.12318682798352866      0.091372349574621        -0.23261804490801435     1.7027178094061557       -0.9717390128091858      -0.9635968415049824      0.9635968415049824       0.9717390128091858       -1.7027178094061557      0.23261804490801435
1.2966680093055793        -0.48781055290396297     0.12387527723563797      0.09204053594655082      -0.2358331303148099      1.7154090813010456       -0.9790847937286371      -0.9721574178872164      0.9721574178872164       0.9790847937286371       -1.7154090813010456      0.2358331303148099
1.2973221737286083        -0.48805067564833055     0.12391302240443991      0.09208235463508872      -0.23603286554298755     1.716169837050338        -0.9795109999696264      -0.9726917026236974      0.9726917026236974       0.9795109999696264       -1.716169837050338       0.23603286554298755
1.2988938666677599        -0.48862759363495023     0.12400370880254508      0.09218282805612141      -0.23651274863778063     1.7179976259020235       -0.9805350014530507      -0.9739753730867518      0.9739753730867518       0.9805350014530507       -1.7179976259020235      0.23651274863778063
1.300562711380394         -0.4892353295402978      0.12411537434623547      0.09228249561805651      -0.23699455356966428     1.7199467645915303       -0.9816867996470764      -0.9752545185141164      0.9752545185141164       0.9816867996470764       -1.7199467645915303      0.23699455356966428
1.3013534634370991        -0.48952329427029845     0.12416828505606226      0.09232972129998501      -0.2372228481724713      1.7208703289087257       -0.9822325585088441      -0.9758606185723513      0.9758606185723513       0.9822325585088441       -1.7208703289087257      0.2372228481724713
1.3664194943258017        -0.513050805016552       0.12839141088956268      0.09626989868433175      -0.25584778262709046     1.7963554374391209       -1.0261962479644655      -1.026006972101744       1.026006972101744        1.0261962479644655       -1.7963554374391209      0.25584778262709046
1.3716169345497229        -0.5149342738310314      0.12872917444869078      0.09658765168378258      -0.2573304175808618      1.8024066777432672       -1.0297054642730052      -1.030031631051122       1.030031631051122        1.0297054642730052       -1.8024066777432672      0.2573304175808618
1.4114122806448044        -0.5293554677461692      0.1313153355500624       0.0990205975265645       -0.26868253873589487     1.848739332248785        -1.056574552036268       -1.0608473189484102      1.0608473189484102       1.056574552036268        -1.848739332248785       0.26868253873589487
1.4446423254846583        -0.5414089704432641      0.13354232415427691      0.10103038093478514      -0.2780694446845588      1.8875664370885008       -1.0793233896102188      -1.0863124921628389      1.0863124921628389       1.0793233896102188       -1.8875664370885008      0.2780694446845588
1.4625033352989947        -0.5477424737466409      0.13464412784605045      0.10209110042553063      -0.28318816225300986     1.907781732733557        -1.0910529293293112      -1.0999169656572538      1.0999169656572538       1.0910529293293112       -1.907781732733557       0.28318816225300986
1.4698594679095107        -0.5503453287196975      0.13510503249812933      0.10252793440324635      -0.28526382233202385     1.9161174925467699       -1.0958940173207985      -1.1054872975579935      1.1054872975579935       1.0958940173207985       -1.9161174925467699      0.28526382233202385
1.5627693554289983        -0.5839346237777056      0.14031347121749077      0.1076761631613021       -0.3162241812577328      2.019514313853093        -1.158105008562679       -1.177633486548148       1.177633486548148        1.158105008562679        -2.019514313853093       0.3162241812577328
1.5881867910478997        -0.5931145605170165      0.1417368994979999       0.10909130497860613      -0.3246532026256114      2.047805039442458        -1.1750745996136132      -1.1973836424544584      1.1973836424544584       1.1750745996136132       -2.047805039442458       0.3246532026256114
1.6164159712313464        -0.6031990792739318      0.14332732785191551      0.1106656984050795       -0.33375338137180166     2.079042935723929        -1.1937173484832977      -1.2190789686124357      1.2190789686124357       1.1937173484832977       -2.079042935723929       0.33375338137180166
1.6219389874867027        -0.6051721072067285      0.14363849387213196      0.11097372720471986      -0.3355338239781842      2.085154604848733        -1.197364787210979       -1.2233236416159412      1.2233236416159412       1.197364787210979        -2.085154604848733       0.3355338239781842
1.6250925941402388        -0.6062894482405184      0.14380976074177615      0.11114032873971764      -0.3365882992968404      2.0885694936652364       -1.1994468637475004      -1.2257109292145794      1.2257109292145794       1.1994468637475004       -2.0885694936652364      0.3365882992968404
1.6317411463580558        -0.6086047044664589      0.1441018191633235       0.11148339399363814      -0.33897037546839737     2.0954484423974415       -1.2035812904483416      -1.2308375274175005      1.2308375274175005       1.2035812904483416       -2.0954484423974415      0.33897037546839737
1.6615744418274898        -0.6189195466180866      0.1454344957734367       0.11307995090720821      -0.34921580228703253     2.126462384185316        -1.221822776927656       -1.253855409544697       1.253855409544697        1.221822776927656        -2.126462384185316       0.34921580228703253
1.6649419634253821        -0.6200838649804358      0.1455849255934396       0.1132601669981265       -0.3503722851880491      2.129963174733696        -1.22388183874869        -1.2564536211730597      1.2564536211730597       1.22388183874869         -2.129963174733696       0.3503722851880491
1.679192808521411         -0.6250318667862745      0.14625621356713595      0.11399711302059598      -0.3553066407887596      2.144820826356341        -1.2328439221915786      -1.267283544953527       1.267283544953527        1.2328439221915786       -2.144820826356341       0.3553066407887596
1.6817030058842142        -0.6259034264025969      0.14637445675130498      0.11412692146000193      -0.3561757967112733      2.147437908899116        -1.2344225372191064      -1.2691911683912882      1.2691911683912882       1.2344225372191064       -2.147437908899116       0.3561757967112733
1.7435289667588871        -0.6113940799395391      0.14929675076000556      0.11727380544789906      -0.3058026858074663      2.1397736339506896       -1.2015831903675012      -1.2439931293906596      1.2439931293906596       1.2015831903675012       -2.1397736339506896      0.3058026858074663
1.784916338149512         -0.6012545867538636      0.15068245574234723      0.11926122554105269      -0.27341690411647535     2.131601442898978        -1.1775116385705597      -1.2275067084448978      1.2275067084448978       1.1775116385705597       -2.131601442898978       0.27341690411647535
1.7947355048442246        -0.598868910280195       0.15109892690014531      0.1197361874037714       -0.26549629024486904     2.1299793508759093       -1.1720898516457416      -1.2233857894750408      1.2233857894750408       1.1720898516457416       -2.1299793508759093      0.26549629024486904
1.7997478128218019        -0.5976511139444504      0.15131151945219817      0.11997863721723998      -0.2614531206633468      2.1291513351144538       -1.1693222373765368      -1.2212822184012673      1.2212822184012673       1.1693222373765368       -2.1291513351144538      0.2614531206633468
1.8434164212849125        -0.5874505866165559      0.15310109775983893      0.12205174922681222      -0.22739088304634658     2.122411463419876        -1.1459974696053805      -1.2038048768608451      1.2038048768608451       1.1459974696053805       -2.122411463419876       0.22739088304634658
1.875441949829523         -0.5800892939378781      0.15426335766225013      0.12345213352604766      -0.2035799807848158      2.116777194966696        -1.129160126758317       -1.191197048993198       1.191197048993198        1.129160126758317        -2.116777194966696       0.2035799807848158
1.9283319457107537        -0.5671299451471917      0.1555728509320768       0.12580520082315166      -0.16432053420554707     2.104199246383219        -1.097757639798008       -1.1707621407907611      1.1707621407907611       1.097757639798008        -2.104199246383219       0.16432053420554707
1.9345804370884854        -0.5656077827988504      0.15580157852756432      0.12608235458520595      -0.15948141167418467     2.102949719521216        -1.094290882839571       -1.1681402483558325      1.1681402483558325       1.094290882839571        -2.102949719521216       0.15948141167418467
1.9433038758109387        -0.5634827114546371      0.1561209021919101       0.12646928539999336      -0.15272557473357107     2.1012052710849765       -1.0894509878850318      -1.1644798579335185      1.1644798579335185       1.0894509878850318       -2.1012052710849765      0.15272557473357107
1.9620132299131636        -0.5592247818027933      0.15668755500297177      0.12721591947050453      -0.13952322071465373     2.0973759064965183       -1.0796485507324844      -1.1572505764786905      1.1572505764786905       1.0796485507324844       -2.0973759064965183      0.13952322071465373