% Model:              Prism_potential.mph
% Version:            COMSOL 6.2.0.339
% Date:               May 6 2024, 20:11
% Dimension:          1
% Nodes:              782
% Expressions:        11
% Description:        Line graph
% Arc length (m)          Magnetic scalar potential Magnetic scalar potential Magnetic scalar potential Magnetic scalar potential Magnetic scalar potential Magnetic scalar potential Magnetic scalar potential Magnetic scalar potential Magnetic scalar potential Magnetic scalar potential Magnetic scalar potential
0                         -2.147707031268941E-6    1.7213087679800028E-5    1.4805998816487128E-5    1.0656784424210713E-4    1.1515867236798488E-4    3.289318163572361E-6     -1.1880146289584118E-5   1.1880146289584118E-5    -3.289318163572361E-6    -1.1515867236798488E-4   -1.0656784424210713E-4
0.006619066082704849      0.003016544805727966     1.904612280758636E-5     5.399213946641756E-4     0.008249913558534681     -0.0038162656643763917   0.008135636821689447     0.00393054240122152      -0.00393054240122152     -0.008135636821689447    0.0038162656643763917    -0.008249913558534681
0.02029643874629155       0.00925331202411847      1.854232501666015E-5     0.00162501347411534      0.025062304919747563     -0.011950943176725532    0.024951050969647906     0.01206219712682511      -0.01206219712682511     -0.024951050969647906    0.011950943176725532     -0.025062304919747563
0.021704214280537506      0.009895245860301225     1.8490470452064804E-5    0.0017366991113665832    0.026792759577424264     -0.012788223863779855    0.026681816754712172     0.01289916668649186      -0.01289916668649186     -0.026681816754712172    0.012788223863779855     -0.026792759577424264
0.10893302333428723       0.04968081210206725      1.7222065989108172E-5    0.008657317362672706     0.1340425598527919       -0.06468068855547643     0.13393922745685763      0.06478402095141074      -0.06478402095141074     -0.13393922745685763     0.06468068855547643      -0.1340425598527919
0.16693910901126596       0.07615298156910065      7.085017103076324E-6     0.01324155322826372      0.20529343110256465      -0.09931849517383731     0.20525092099994652      0.09936100527645542      -0.09936100527645542     -0.20525092099994652     0.09931849517383731      -0.20529343110256465
0.20904985709614987       0.09536539966930546      1.4107891467363218E-5    0.016574935653181175     0.25707286562573695      -0.12438873305148429     0.2569882182769331       0.12447338040028813      -0.12447338040028813     -0.2569882182769331      0.12438873305148429      -0.25707286562573695
0.22265096596269557       0.1015663330251653       1.0820276450495235E-5    0.01765374131581331      0.2737800921429346       -0.13248523995772607     0.2737151704842319       0.13255016161642869      -0.13255016161642869     -0.2737151704842319      0.13248523995772607      -0.2737800921429346
0.23981896361669366       0.10941697645111187      7.756846656047393E-6     0.019006610648110305     0.2948836660346324       -0.14278423976981455     0.2948371249546964       0.14283078084975048      -0.14283078084975048     -0.2948371249546964      0.14278423976981455      -0.2948836660346324
0.2727927055324671        0.12449532719515698      1.8730653639597965E-6    0.02160500127629969      0.33541627869160384      -0.16256503008902345     0.3354050402994204       0.16257626848120685      -0.16257626848120685     -0.3354050402994204      0.16256503008902345      -0.33541627869160384
0.29163676331901456       0.13308182231033022      1.334201234461617E-5     0.023092699638269803     0.35857446921077274      -0.17375282003054754     0.3584944171367054       0.17383287210461484      -0.17383287210461484     -0.3584944171367054      0.17375282003054754      -0.35857446921077274
0.31197972865586093       0.1423756049338003       1.7738203108883226E-5    0.024706574487486005     0.3836307224268706       -0.1858716973083301      0.38352429320821757      0.18597812652698303      -0.18597812652698303     -0.38352429320821757     0.1858716973083301       -0.3836307224268706
0.3363689085911039        0.1534945747936042       1.1979480589440275E-5    0.026648895393107136     0.41362066960140453      -0.20035762957301168     0.41354879271786815      0.20042950645654795      -0.20042950645654795     -0.41354879271786815     0.20035762957301168      -0.41362066960140453
0.3712238777492749        0.16937639261553142      3.170808793333626E-5     0.029417968687282515     0.4565197842439921       -0.22098578621813286     0.45632953571639245      0.22117603474573252      -0.22117603474573252     -0.45632953571639245     0.22098578621813286      -0.4565197842439921
0.38832392677166205       0.1772035939060812       2.4477132717251647E-5    0.03074728384400481      0.4774697545863326       -0.2313446210379915      0.47732289179002946      0.23149148383429466      -0.23149148383429466     -0.47732289179002946     0.2313446210379915       -0.4774697545863326
0.4062683076155572        0.1854172709964553       1.6889141940575254E-5    0.032142235250434026     0.4994541504204677       -0.24221493356535284     0.49935281556882455      0.242316268416996        -0.242316268416996       -0.49935281556882455     0.24221493356535284      -0.4994541504204677
0.4500868512195122        0.20549486852570215      7.779480283871777E-6     0.0355408057250733       0.5531762983925483       -0.2688031757102595      0.5531296215108453       0.26884985259196253      -0.26884985259196253     -0.5531296215108453      0.2688031757102595       -0.5531762983925483
0.4653759432485193        0.21246394127431253      2.2449999611799166E-5    0.03672546452917887      0.5718970906641752       -0.27795867443307437     0.5717623906665046       0.2780933744307449       -0.2780933744307449      -0.5717623906665046      0.27795867443307437      -0.5718970906641752
0.4704396012310886        0.21476639703784203      2.818176114774331E-5     0.03712502159663747      0.5781174257456765       -0.2809481624056911      0.5779483351787902       0.2811172529725773       -0.2811172529725773      -0.5779483351787902      0.2809481624056911       -0.5781174257456765
0.5040384807973036        0.23015216434028907      3.026435970088096E-6     0.0397205989927607       0.6191958039595304       -0.3014128534016252      0.6191776453437101       0.30143101201744543      -0.30143101201744543     -0.6191776453437101      0.3014128534016252       -0.6191958039595304
0.5488092102320641        0.25066413259283715      -7.6431763572451E-6      0.04318195418277692      0.6740331523877094       -0.32862337798363855     0.6740790114458534       0.32857751892549475      -0.32857751892549475     -0.6740790114458534      0.32862337798363855      -0.6740331523877094
0.5536574789516856        0.2528975932469023       7.886167335308288E-6     0.04354872671335324      0.6800137518492227       -0.33157662113838604     0.6799664348452112       0.33162393814239755      -0.33162393814239755     -0.6799664348452112      0.33157662113838604      -0.6800137518492227
0.6335247719134252        0.2895414422618282       -2.3398275926516873E-5   0.049665686502837675     0.7776754357072266       -0.3804903333400853      0.7778158253627862       0.3803499436845259       -0.3803499436845259      -0.7778158253627862      0.3804903333400853       -0.7776754357072266
0.6401256047254968        0.29256168786501413      8.303721777519566E-6     0.050183421243877424     0.7858819718708697       -0.38436477958918613     0.7858321495402051       0.384414601919851        -0.384414601919851       -0.7858321495402051      0.38436477958918613      -0.7858819718708697
0.6492577771408652        0.29674016115320445      5.216305243885798E-5     0.05089970100057028      0.7972356154660059       -0.38972502914681134     0.796922637151373        0.39003800746144424      -0.39003800746144424     -0.796922637151373       0.38972502914681134      -0.7972356154660059
0.694421263986411         0.31765011385443837      5.865216852340245E-5     0.05430156637610843      0.8526824497188799       -0.4179180056988729      0.8523305367077398       0.41826991871001307      -0.41826991871001307     -0.8523305367077398      0.4179180056988729       -0.8526824497188799
0.6989490707891375        0.3197319015990208       6.225342814931978E-5     0.054648412898705194     0.8582442150773097       -0.42068339131877297     0.8578706945084139       0.4210569118876686       -0.4210569118876686      -0.8578706945084139      0.42068339131877297      -0.8582442150773097
0.7345860121752201        0.33611699731186756      9.059780850750914E-5     0.0573783326444648       0.9020191186271163       -0.44244887062035343     0.9014755317760712       0.44299245747139826      -0.44299245747139826     -0.9014755317760712      0.44244887062035343      -0.9020191186271163
0.7427819040304254        0.33989747974555923      8.057908982659544E-5     0.0579949608059883       0.9120165399845509       -0.44757337899768557     0.9115330654455914       0.44805685353664493      -0.44805685353664493     -0.9115330654455914      0.44757337899768557      -0.9120165399845509
0.7673333240230021        0.3511422620473202       4.6775198792424456E-5    0.0598420749985291       0.9417931496851335       -0.4627758985041468      0.9415124984923791       0.46305654969690113      -0.46305654969690113     -0.9415124984923791      0.4627758985041468       -0.9417931496851335
0.8091226658998514        0.3702821754242698       -1.0762913448000497E-5   0.06298607589546319      0.9924763656900479       -0.488652336007031       0.9925409431707363       0.4885877585263428       -0.4885877585263428      -0.9925409431707363      0.488652336007031        -0.9924763656900479
0.8196826998497563        0.3751559837673051       8.623186953935543E-7     0.06376127223293676      1.0053596434224428       -0.49526429164677704     1.005354469510271        0.49526946555894924      -0.49526946555894924     -1.005354469510271       0.49526429164677704      -1.0053596434224428
0.8478025064424595        0.38809336500181185      3.768368436701504E-5     0.06585223432943232      1.0397087183744536       -0.5126647416327936      1.0394826162682522       0.5128908437389957       -0.5128908437389957      -1.0394826162682522      0.5126647416327936       -1.0397087183744536
0.8533510635409383        0.3906461492198612       4.4949219753947535E-5    0.0662648197625829       1.0464864251493153       -0.5160981717301292      1.0462167298307925       0.5163678670486529       -0.5163678670486529      -1.0462167298307925      0.5160981717301292       -1.0464864251493153
0.8769217754388068        0.4015299119844864       1.6735433476207547E-5    0.06797987345478163      1.075029524088528        -0.5310901238494179      1.0749291114876713       0.5311905364502754       -0.5311905364502754      -1.0749291114876713      0.5310901238494179       -1.075029524088528
0.898088138529107         0.41130323102574295      6.991216139353405E-6     0.06952551627578413      1.1007295008030407       -0.5444834232999316      1.1006875535062046       0.544525370596768        -0.544525370596768       -1.1006875535062046      0.5444834232999316       -1.1007295008030407
0.9240249418569357        0.42324271286558796      1.5976884307732087E-5    0.07141500485275508      1.1321933757951195       -0.5607774756672325      1.132097514489273        0.5608733369730794       -0.5608733369730794      -1.132097514489273       0.5607774756672325       -1.1321933757951195
0.9248976072796203        0.423644375979678        1.3545550232530986E-5    0.07148102097087311      1.1332534724935461       -0.561324031425166       1.1331721991921508       0.5614053047265617       -0.5614053047265617      -1.1331721991921508      0.561324031425166        -1.1332534724935461
0.9284123241708714        0.4252476045459298       3.021095963228089E-5     0.07173354488912265      1.1375200215272472       -0.5634703966564721      1.1373387557694534       0.5636516624142665       -0.5636516624142665      -1.1373387557694534      0.5634703966564721       -1.1375200215272472
0.9305132831317915        0.42621194099951953      4.095481429858684E-5     0.07188530318268946      1.1400879591726931       -0.5647598048253857      1.1398422302869013       0.5650055337111779       -0.5650055337111779      -1.1398422302869013      0.5647598048253857       -1.1400879591726931
0.9310561248012341        0.42646110436734747      4.373079046556113E-5     0.07192451419392953      1.1407514578818099       -0.5650929595875801      1.1404890731390165       0.5653553443303742       -0.5653553443303742      -1.1404890731390165      0.5650929595875801       -1.1407514578818099
0.9318191177934851        0.4268174713699843       4.431609950312598E-5     0.07198045539255817      1.1416897126087109       -0.5655801728712266      1.1414238160116918       0.565846069468246        -0.565846069468246       -1.1414238160116918      0.5655801728712266       -1.1416897126087109
0.9398250244593542        0.43055674681665423      5.04576100714086E-5      0.07256743328035797      1.1515345995849549       -0.5706923876816623      1.151231853924526        0.5709951333420913       -0.5709951333420913      -1.151231853924526       0.5706923876816623       -1.1515345995849549
0.9449441357131013        0.43293500236684346      3.653942207026105E-5     0.07294231302549253      1.1577488751018679       -0.5739911343655059      1.1575296385694465       0.574210370897928        -0.574210370897928       -1.1575296385694465      0.5739911343655059       -1.1577488751018679
0.9804437004129195        0.44934580588123585      1.3211509279303577E-5    0.0755155128526712       1.2007932977009945       -0.5965899258239489      1.2007140286453188       0.5966691948796254       -0.5966691948796254      -1.2007140286453188      0.5965899258239489       -1.2007932977009945
1.027318773392112         0.4711547644029384       -1.1983578875037848E-4   0.07878458275116251      1.257088352444276        -0.6275307051674779      1.2578073671767784       0.6268116904349761       -0.6268116904349761      -1.2578073671767784      0.6275307051674779       -1.257088352444276
1.0285435643870702        0.47172186820127693      -1.23985589432901E-4     0.07887160162480562      1.258558186133478        -0.62832928667163        1.2593020996700754       0.6275853731350332       -0.6275853731350332      -1.2593020996700754      0.62832928667163         -1.258558186133478
1.034928879021067         0.4746784021710994       -1.4562012392520468E-4   0.07932526505766455      1.266221004201082        -0.6324926044833165      1.267094724944633        0.6316188837397656       -0.6316188837397656      -1.267094724944633       0.6324926044833165       -1.266221004201082
1.0414390751616445        0.47770001085609665      -1.405040788704829E-4    0.07979314754434692      1.27415109965297         -0.6366489437714172      1.2749941241261928       0.6358059192981946       -0.6358059192981946      -1.2749941241261928      0.6366489437714172       -1.27415109965297
1.0688980568421467        0.49033611622736445      -1.0362495741612129E-4   0.08179666070105869      1.3075480003867161       -0.6537964645227429      1.3081697501312135       0.6531747147782468       -0.6531747147782468      -1.3081697501312135      0.6537964645227429       -1.3075480003867161
1.0859437223172435        0.4981802099222027       -8.073156775437315E-5    0.08304037816449669      1.3282797377991302       -0.6644411018896823      1.3287641272056572       0.6639567124831569       -0.6639567124831569      -1.3287641272056572      0.6644411018896823       -1.3282797377991302
1.1134463662450709        0.5110288062622247       1.713471692350345E-5     0.08493175033775473      1.3618360180262394       -0.6822792070226606      1.3617332097246995       0.6823820153242024       -0.6823820153242024      -1.3617332097246995      0.6822792070226606       -1.3618360180262394
1.1509235316035396        0.5284033913522075       -1.1905537582248323E-4   0.08745605586899377      1.4062738400529236       -0.7073397253559085      1.4069881723078594       0.7066253931009736       -0.7066253931009736      -1.4069881723078594      0.7073397253559085       -1.4062738400529236
1.181172508668156         0.5424626601337887       -8.782245806978608E-5    0.08951611699584758      1.4427263208767598       -0.7271243196583979      1.443253255625179        0.7265973849099789       -0.7265973849099789      -1.443253255625179       0.7271243196583979       -1.4427263208767598
1.2100461204114856        0.555882679836516        -5.80096436107614E-5     0.09148251093430179      1.477521374479408        -0.7460093448666585      1.4778694323410728       0.7456612870049932       -0.7456612870049932      -1.4778694323410728      0.7460093448666585       -1.477521374479408
1.2566633542944867        0.57774070459812         -5.5531402778819135E-5   0.09458534844806198      1.5336562087801522       -0.77730660961233        1.5339893971968246       0.7769734211956559       -0.7769734211956559      -1.5339893971968246      0.77730660961233         -1.5336562087801522
1.2702071102808035        0.5840669452718162       -2.7249048687246098E-5   0.09548163292210969      1.54997867508601         -0.7862891060012566      1.550142169378133        0.7861256117091318       -0.7861256117091318      -1.550142169378133       0.7862891060012566       -1.54997867508601
1.278905586254448         0.5881299727332703       -9.084709504509963E-6    0.09605727153896984      1.560461777493907        -0.792058113439176       1.5605162857509334       0.7920036051821474       -0.7920036051821474      -1.5605162857509334      0.792058113439176        -1.560461777493907
1.3511346117356589        0.6218246194374345       6.393549206277203E-5     0.10073454914466139      1.6467792419297025       -0.8405192358200368      1.646395628977325        0.8409028487724111       -0.8409028487724111      -1.646395628977325       0.8405192358200368       -1.6467792419297025
1.35613299545784          0.6241726676426331       7.157507766781721E-5     0.10105345348203257      1.6527738744463993       -0.8439167961241341      1.6523444239803915       0.8443462465901385       -0.8443462465901385      -1.6523444239803915      0.8439167961241341       -1.6527738744463993
1.3748011642799882        0.6329422545198199       1.0010771576307608E-4    0.10224451049947214      1.6751628741848164       -0.8566061438944637      1.6745622278902368       0.8572067901890391       -0.8572067901890391      -1.6745622278902368      0.8566061438944637       -1.6751628741848164
1.4142135623730951        0.6514274392947176       1.7091420477305646E-5    0.10472912664609536      1.7218226594352462       -0.8838870977436232      1.721720110912381        0.8839896462664837       -0.8839896462664837      -1.721720110912381       0.8838870977436232       -1.7218226594352462
1.4370191396597563        0.6460877683522785       2.782768630275531E-7     0.10617844708377311      1.7168901598702369       -0.8674609135388768      1.7168884902090582       0.8674625832000524       -0.8674625832000524      -1.7168884902090582      0.8674609135388768       -1.7168901598702369
1.4426048977204344        0.6447454282880338       -4.178471356099849E-5    0.106516157307751        1.7154301316663867       -0.8635515814857477      1.7156808399477526       0.8633008732043792       -0.8633008732043792      -1.7156808399477526      0.8635515814857477       -1.7154301316663867
1.4565295803366023        0.6415048742067059       -3.6492978803200115E-5   0.107336538657076        1.7122464241053041       -0.8537730727215185      1.7124653819781233       0.8535541148486969       -0.8535541148486969      -1.7124653819781233      0.8537730727215185       -1.7122464241053041
1.4666648125746982        0.639165302136903        -3.921466591704447E-5    0.10795534855551445      1.7100343544981107       -0.8466268540495003      1.710269642493613        0.846391566053996        -0.846391566053996       -1.710269642493613       0.8466268540495003       -1.7100343544981107
1.4713060374968474        0.638034890619001        -2.1571806330023327E-5   0.10819396451642033      1.7087809238846912       -0.8433586385913115      1.7089103547226716       0.8432292077533295       -0.8432292077533295      -1.7089103547226716      0.8433586385913115       -1.7087809238846912
1.476483683450424         0.6368023362547086       -1.178048390010236E-5    0.10852501701980954      1.7076693991369531       -0.8395399458818801      1.7077400820403539       0.8394692629784777       -0.8394692629784777      -1.7077400820403539      0.8395399458818801       -1.7076693991369531
1.4932117912883416        0.6328201593142913       1.985364074882619E-5     0.10959459227203039      1.7040782486389487       -0.8272023886182152      1.703959126794456        0.8273215104627065       -0.8273215104627065      -1.703959126794456       0.8272023886182152       -1.7040782486389487
1.5055593322712426        0.629890100409316        5.9878832953916966E-5    0.11025181765420289      1.700967107934304        -0.8185932937029594      1.7006078349365805       0.8189525667006815       -0.8189525667006815      -1.7006078349365805      0.8185932937029594       -1.700967107934304
1.5702885127477733        0.6146900569954633       -1.6304711123218529E-4   0.11389552329830485      1.684473065850448        -0.7742871621314038      1.6854513485178413       0.7733088794640096       -0.7733088794640096      -1.6854513485178413      0.7742871621314038       -1.684473065850448
1.5879832432486936        0.6105348881855023       -2.239873931111848E-4    0.11489158703528425      1.6799641623328068       -0.7621753904092012      1.681308086691474        0.7608314660505331       -0.7608314660505331      -1.681308086691474       0.7621753904092012       -1.6799641623328068
1.5941028597865803        0.6091788869699666       -1.9546717044281736E-4   0.11522860389548108      1.6786857880105281       -0.7580297598693376      1.679858591033185        0.7568569568466796       -0.7568569568466796      -1.679858591033185       0.7580297598693376       -1.6786857880105281
1.6287448982465194        0.6015028102142602       -3.4019366573611026E-5   0.11713639516970659      1.6714491430076248       -0.7345620978494151      1.6716532592070665       0.7343579816499726       -0.7343579816499726      -1.6716532592070665      0.7345620978494151       -1.6714491430076248
1.6365903005707143        0.5996141147000633       7.112261955271801E-7     0.11759756712265557      1.6696206315693343       -0.728835827230918       1.6696163642121613       0.7288400945880903       -0.7288400945880903      -1.6696163642121613      0.728835827230918        -1.6696206315693343
1.6600717748351046        0.5939612044633112       1.0466070980331347E-4    0.1189778656589375       1.664147853691781        -0.7116969641614623      1.6635198894329615       0.7123249284202815       -0.7123249284202815      -1.6635198894329615      0.7116969641614623       -1.664147853691781
1.679707786164344         0.5896303072438644       5.357096816020865E-5     0.11996779271366453      1.6592924982468666       -0.6992287307285902      1.6589710724379052       0.6995501565375506       -0.6995501565375506      -1.6589710724379052      0.6992287307285902       -1.6592924982468666
1.7114668664481463        0.5826776514742525       2.170067965920181E-4     0.12153495617906002      1.6521461480545203       -0.678564457842489       1.6508441072749682       0.6798664986220404       -0.6798664986220404      -1.6508441072749682      0.678564457842489        -1.6521461480545203
1.7331686541300857        0.5773989021218096       1.658176811815317E-5     0.12266213220491351      1.6454960783676267       -0.6640995301196109      1.6453965877589178       0.664199020728319        -0.664199020728319       -1.6453965877589178      0.6640995301196109       -1.6454960783676267
1.7627942463011226        0.5701830875599475       -3.962616599979558E-6    0.12423450502290914      1.6372923073617307       -0.6434400428780584      1.6373160830613305       0.643416267178458        -0.643416267178458       -1.6373160830613305      0.6434400428780584       -1.6372923073617307
1.782560158841266         0.5655625055212394       -1.8377858176516707E-4   0.1251158347664523       1.6310370143629913       -0.6312130077219651      1.6321396858535824       0.6301103362313735       -0.6301103362313735      -1.6321396858535824      0.6312130077219651       -1.6310370143629913
1.7851237810562972        0.5649764876838952       -1.7566270452685497E-4   0.12523387401696032      1.6303614833220499       -0.6295444674135293      1.6314154595492107       0.6284904911863677       -0.6284904911863677      -1.6314154595492107      0.6295444674135293       -1.6303614833220499
1.7871809369191032        0.5645363777761141       -1.9298813659413786E-4   0.12532219414900822      1.6297825677384774       -0.6283629433659775      1.630940496558042        0.6272050145464121       -0.6272050145464121      -1.630940496558042       0.6283629433659775       -1.6297825677384774
1.8010158721865663        0.5614822117715946       -1.5870915122794113E-4   0.1259823699067555       1.6264177757165261       -0.6195110713698512      1.6273700306238936       0.6185588164624829       -0.6185588164624829      -1.6273700306238936      0.6195110713698512       -1.6264177757165261
1.807076797923333         0.5601442168346262       -1.4369192269599214E-4   0.12627158529978516      1.624943699100304        -0.6156331682381998      1.6258058506364799       0.6147710167020232       -0.6147710167020232      -1.6258058506364799      0.6156331682381998       -1.624943699100304
1.821952238360373         0.5565946383236083       -3.2854210314740145E-6   0.12702255207542307      1.6212696286858135       -0.605108924608619       1.6212893412120026       0.6050892120824294       -0.6050892120824294      -1.6212893412120026      0.605108924608619        -1.6212696286858135
1.8486566033428908        0.5505377209505978       3.178023179077215E-5     0.1282742099807007       1.6142676225193695       -0.5878832612830212      1.6140769411286249       0.5880739426737651       -0.5880739426737651      -1.6140769411286249      0.5878832612830212       -1.6142676225193695
1.8494193658359215        0.5503647159231971       3.278181953809175E-5     0.12830996135336487      1.614067622718467        -0.5873912409743209      1.6138709318012383       0.5875879318915489       -0.5875879318915489      -1.6138709318012383      0.5873912409743209       -1.614067622718467
1.8594666789446779        0.5480681817657288       3.0311968806964545E-5    0.1287864758317601       1.6113732027649175       -0.5808995242979967      1.6111913309520758       0.5810813961108379       -0.5810813961108379      -1.6111913309520758      0.5808995242979967       -1.6113732027649175
1.8652841425841158        0.5467296011320382       3.1143197308429547E-6    0.12904865102035154      1.6096631493046736       -0.577255255223478       1.6096444633862887       0.5772739411418623       -0.5772739411418623      -1.6096444633862887      0.577255255223478        -1.6096631493046736
1.887103538888846         0.541812558329181        -4.258495535498742E-6    0.12998158907271237      1.6035386974626038       -0.5637115358541195      1.6035642484358168       0.5636859848809057       -0.5636859848809057      -1.6035642484358168      0.5637115358541195       -1.6035386974626038
1.887466106958183         0.5417302420009192       -5.220149089766907E-6    0.1299970099611096       1.6034328633990065       -0.5634881046046699      1.603464184293545        0.5634567837101305       -0.5634567837101305      -1.603464184293545       0.5634881046046699       -1.6034328633990065
1.920781840624358         0.5341663413139272       -9.358478018283573E-5    0.13141400791042376      1.5937079599289996       -0.5429574053267079      1.5942694686100967       0.5423958966456102       -0.5423958966456102      -1.5942694686100967      0.5429574053267079       -1.5937079599289996
1.9214290161922631        0.5340191659661315       -8.947995627391373E-5    0.1314440663017822       1.5935461572705694       -0.5425305065939562      1.5940830370082124       0.5419936268563121       -0.5419936268563121      -1.5940830370082124      0.5425305065939562       -1.5935461572705694
1.9299641182514524        0.532078183215349        -3.534458291446673E-5    0.13184048336494442      1.5914122661417314       -0.536900466719664       1.5916243336392177       0.5366883992221765       -0.5366883992221765      -1.5916243336392177      0.536900466719664        -1.5914122661417314
1.931419769130649         0.5317557967068293       -4.268884607970254E-5    0.1318978193986424       1.590974804469988        -0.5360483823573282      1.591230937546466        0.5357922492808493       -0.5357922492808493      -1.591230937546466       0.5360483823573282       -1.590974804469988
1.9480081263269655        0.5281103413854713       -1.052335600035053E-4    0.1325611637255475       1.5861496369931216       -0.5262917285487635      1.5867810383531424       0.5256603271887418       -0.5256603271887418      -1.5867810383531424      0.5262917285487635       -1.5861496369931216
1.9679501947358222        0.5236023900047424       -1.7501366137343986E-4   0.1333281266972608       1.579992245814407        -0.5144173142045618      1.5810423277826473       0.5133672322363205       -0.5133672322363205      -1.5810423277826473      0.5144173142045618       -1.579992245814407
1.9759198773967699        0.5218136997132352       -1.528589478510334E-4    0.13366866612574274      1.5778434870858875       -0.5094113117670527      1.5787606407729937       0.5084941580799458       -0.5084941580799458      -1.5787606407729937      0.5094113117670527       -1.5778434870858875