% Model:              Prism_potential.mph
% Version:            COMSOL 6.2.0.339
% Date:               May 6 2024, 20:11
% Dimension:          1
% Nodes:              561
% Expressions:        11
% Description:        Line graph
% Arc length (m)          Magnetic scalar potential Magnetic scalar potential Magnetic scalar potential Magnetic scalar potential Magnetic scalar potential Magnetic scalar potential Magnetic scalar potential Magnetic scalar potential Magnetic scalar potential Magnetic scalar potential Magnetic scalar potential
0                         -2.1477070312686483E-6   1.7213087679799984E-5    1.4805998816487067E-5    1.0656784424210705E-4    1.1515867236798376E-4    3.289318163572131E-6     -1.1880146289583281E-5   1.1880146289583281E-5    -3.289318163572131E-6    -1.1515867236798376E-4   -1.0656784424210705E-4
0.003932312752765549      0.0025337598203929714    1.8206181188757894E-5    1.4511425103091892E-5    0.00518018388476387      -0.004954855396807201    0.005070946797631605     0.005064092483939353     -0.005064092483939353    -0.005070946797631605    0.004954855396807201     -0.00518018388476387
0.006499345191009261      0.004189252919117381     1.91602760959445E-5      1.4433262639481319E-5    0.0084937197170798       -0.008263291959388911    0.008378758060504428     0.008378253615964185     -0.008378253615964185    -0.008378758060504428    0.008263291959388911     -0.0084937197170798
0.006712407349105531      0.004326730619728802     1.9184609559713033E-5    1.4448954322751047E-5    0.008768810885427027     -0.00853811159348737     0.008653703228069045     0.008653219250845254     -0.008653219250845254    -0.008653703228069045    0.00853811159348737      -0.008768810885427027
0.009120687734235466      0.00588066611317131      1.9459655133339875E-5    1.4626320277198702E-5    0.011878216472850714     -0.011644447979833716    0.011761458542050967     0.011761205910633364     -0.011761205910633364    -0.011761458542050967    0.011644447979833716     -0.011878216472850714
0.02966550217481918       0.019136385654162508     2.093463981692233E-5     1.4618952752953803E-5    0.038394051038786875     -0.038151491577862386    0.038268443199885635     0.038277099416763535     -0.038277099416763535    -0.038268443199885635    0.038151491577862386     -0.038394051038786875
0.07764785187511584       0.05009507707405078      2.4379461920082687E-5    1.4601745923183943E-5    0.1003216995175538       -0.10005860877864863     0.1001754227460336       0.10020488555016874      -0.10020488555016874     -0.1001754227460336      0.10005860877864863      -0.1003216995175538
0.10723795131550347       0.06918507168411075      2.4866349880513683E-5    1.446546841266886E-5     0.13850260429151298      -0.1382376824449294      0.13835340619223022      0.1383868805442121       -0.1383868805442121      -0.13835340619223022     0.1382376824449294       -0.13850260429151298
0.11043130476918019       0.07125230513584511      1.886003109725085E-5     1.5015344168682409E-5    0.14262125174165594      -0.14238796880172383     0.14250809155507274      0.14250112898830694      -0.14250112898830694     -0.14250809155507274     0.14238796880172383      -0.14262125174165594
0.1646242259312369        0.10630570846181539      1.7806068564293984E-5    2.0879206046131723E-5    0.21274835195350744      -0.2124744818937535      0.212641515542122        0.21258131830513885      -0.21258131830513885     -0.212641515542122       0.2124744818937535       -0.21274835195350744
0.17377587188442467       0.11221880378350307      1.92408670707557E-5      1.878899229691602E-5     0.22457048613740535      -0.2243047289966064      0.22445504093498114      0.2244201741990305       -0.2244201741990305      -0.22445504093498114     0.2243047289966064       -0.22457048613740535
0.1806068277949431        0.11663244627401834      2.0311826916476336E-5    1.7228818527357484E-5    0.23339474330289478      -0.23313504179317796     0.23327287234139624      0.23325691275467642      -0.23325691275467642     -0.23327287234139624     0.23313504179317796      -0.23339474330289478
0.21820079235626982       0.14093243916826043      1.6338099534460825E-5    1.3068302605662998E-5    0.28196616584554607      -0.28176359082749497     0.28186813724833965      0.2818616194247013       -0.2818616194247013      -0.28186813724833965     0.28176359082749497      -0.28196616584554607
0.2317580620946011        0.1497209782727556       1.7937564089984346E-5    6.192168577459742E-6     0.2995205379120902       -0.2993633751789315      0.2994129125275506       0.299471000563471        -0.299471000563471       -0.2994129125275506      0.2993633751789315       -0.2995205379120902
0.2426953390218832        0.15682209027016802      -1.8510471021150046E-5   -2.5814850466476303E-6   0.3135783231870852       -0.3137100378935862      0.3136893860132124       0.3135989750674589       -0.3135989750674589      -0.3136893860132124      0.3137100378935862       -0.3135783231870852
0.26060857943717736       0.16846008126282117      -1.1896857606228826E-5   -2.478066279437707E-6    0.3368745596877051       -0.3369657653635789      0.33694594083334284      0.3368943842179411       -0.3368943842179411      -0.33694594083334284     0.3369657653635789       -0.3368745596877051
0.303083664293072         0.19605158333409528      4.075442195661713E-5     6.2056028561411256E-6    0.39225025234548416      -0.39195608099089635     0.3920057258137448       0.39220060752263564      -0.39220060752263564     -0.3920057258137448      0.39195608099089635      -0.39225025234548416
0.30724739059270234       0.19875630925071763      4.5915695163457855E-5    7.0568412157528124E-6    0.3976785929517878       -0.3973466440510821      0.3974030987808074       0.3976221382220624       -0.3976221382220624      -0.3974030987808074      0.3973466440510821       -0.3976785929517878
0.3084513125978182        0.19953705233429542      4.354643477699389E-5     7.141524819942972E-6     0.3992333100722008       -0.3989148992649803      0.3989720314635391       0.39917617787364185      -0.39917617787364185     -0.3989720314635391      0.3989148992649803       -0.3992333100722008
0.3198795429236553        0.20695069631320778      1.9545267093964936E-5    7.707763616036152E-6     0.41399085948216074      -0.4138119257706697      0.4138735878795974       0.4139291973732331       -0.4139291973732331      -0.4138735878795974      0.4138119257706697       -0.41399085948216074
0.33229622992737384       0.21506909651249603      5.744074449632458E-6     5.221310218500434E-6     0.4301763104892141       -0.43010007556076946     0.4301418460425167       0.43013454000746676      -0.43013454000746676     -0.4301418460425167      0.43010007556076946      -0.4301763104892141
0.34232655925379774       0.2216272249068237       -5.4046729802276205E-6   3.212727218492343E-6     0.4432510867035798       -0.44325781292371436     0.4432835147414616       0.4432253848858326       -0.4432253848858326      -0.4432835147414616      0.44325781292371436      -0.4432510867035798
0.3490547626242824        0.22601244524528258      -6.918759466009467E-6    4.447601950576929E-6     0.4520219246199685       -0.45202785636116105     0.452063437176765        0.45198634380436464      -0.45198634380436464     -0.452063437176765       0.45202785636116105      -0.4520219246199685
0.35630713087649935       0.23073929891042738      -8.55080180420199E-6     5.77868036918109E-6      0.461476060136918        -0.4614811355047908      0.4615273649477436       0.46142983069396526      -0.46142983069396526     -0.4615273649477436      0.4614811355047908       -0.461476060136918
0.3827367190908037        0.24798952618199827      1.097116619606887E-5     1.3491187392291595E-6    0.4960173623375408       -0.49594074239045166     0.4959515353403648       0.49600656938762766      -0.49600656938762766     -0.4959515353403648      0.49594074239045166      -0.4960173623375408
0.4012890043070417        0.260130595213813        2.0322811304929623E-5    1.0163210062614537E-5    0.5203628117017902       -0.520159569153461       0.5202408748339611       0.5202815060212901       -0.5202815060212901      -0.5202408748339611      0.520159569153461        -0.5203628117017902
0.40795234674963937       0.26449124942084246      2.368160042636033E-5     1.3328928362192952E-5    0.5291068593564118       -0.5288581383269573      0.528964769753854        0.529000227929515        -0.529000227929515       -0.528964769753854       0.5288581383269573       -0.5291068593564118
0.419452185070303         0.27199514019807886      2.5792901299000887E-6    1.4424347204587803E-5    0.5440557156553648       -0.5439248451369499      0.5440402399145858       0.5439403208777287       -0.5439403208777287      -0.5440402399145858      0.5439248451369499       -0.5440557156553648
0.4293494600808703        0.27851604461435975      -1.5734526913377183E-5   1.8817765787804364E-5    0.5570601567111296       -0.5570040217463086      0.5571545638726102       0.5569096145848278       -0.5569096145848278      -0.5571545638726102      0.5570040217463086       -0.5570601567111296
0.4401264744378025        0.2855819208426475       -2.6023537002278167E-5   2.5194563427462105E-5    0.5711865493279971       -0.5711411340425923      0.5713426905500112       0.5709849928205781       -0.5709849928205781      -0.5713426905500112      0.5711411340425923       -0.5711865493279971
0.4495946838789869        0.2918113995273813       -1.4057284983315854E-5   2.2168788718440692E-5    0.5836693023546855       -0.5835762957548389      0.5837536460645857       0.5834919520449386       -0.5834919520449386      -0.5837536460645857      0.5835762957548389       -0.5836693023546855
0.4967111370707327        0.3228110243964235       4.5490125393938586E-5    7.111689133565073E-6     0.6457869659255622       -0.6454571316601311      0.645514025173199        0.6457300724124944       -0.6457300724124944      -0.645514025173199       0.6454571316601311       -0.6457869659255622
0.4976488026060885        0.3234290071065065       4.729755304795885E-5     7.817621774011113E-6     0.6470311773592521       -0.6466848510667733      0.6467473920409649       0.6469686363850607       -0.6469686363850607      -0.6467473920409649      0.6466848510667733       -0.6470311773592521
0.5249811167165869        0.34146344806714213      2.9267411441429025E-8    1.4064834047981985E-5    0.6829832432727097       -0.6828705489958582      0.6829830676682414       0.6828707246003265       -0.6828707246003265      -0.6829830676682414      0.6828705489958582       -0.6829832432727097
0.5277806317797386        0.3433106275236898       -4.812191570546624E-6    1.4704705402927842E-5    0.6866656372942788       -0.6865768728004799      0.6866945104437024       0.6865479996510562       -0.6865479996510562      -0.6866945104437024      0.6865768728004799       -0.6866656372942788
0.5604334743688603        0.3649640611170186       5.386564990870514E-5     8.084224831226769E-6     0.7301220560830873       -0.7297341883849864      0.7297988621836354       0.7300573822844383       -0.7300573822844383      -0.7297988621836354      0.7297341883849864       -0.7301220560830873
0.5799119171960109        0.3779103754434434       6.664393068280157E-5     1.1672106128657084E-5    0.7560673711034489       -0.7555741306703241      0.7556675075193525       0.7559739942544205       -0.7559739942544205      -0.7556675075193525      0.7555741306703241       -0.7560673711034489
0.5820168575029248        0.37930942048485106      6.802481715782087E-5     1.2059830959969156E-5    0.7588711547450145       -0.7583665271943891      0.758463005842068        0.7587746760973356       -0.7587746760973356      -0.758463005842068       0.7583665271943891       -0.7588711547450145
0.6323334596319113        0.41300282405454813      2.1416257531778077E-4    1.7632694268747483E-5    0.8267186666121236       -0.8252926296060683      0.8254336911602176       0.8265776050579745       -0.8265776050579745      -0.8254336911602176      0.8252926296060683       -0.8267186666121236
0.6574737695147316        0.42973003196078996      1.1950736966819149E-4    6.930231287783132E-6     0.8598463069557348       -0.8590738208874247      0.8591292627377263       0.8597908651054335       -0.8597908651054335      -0.8591292627377263      0.8590738208874247       -0.8598463069557348
0.669779924638436         0.4379638692697269       8.319613844364826E-5     1.8092856890238713E-5    0.8762496983823449       -0.8756057786965623      0.8757505215516836       0.8761049555272238       -0.8761049555272238      -0.8757505215516836      0.8756057786965623       -0.8762496983823449
0.6712418564007548        0.4389489734054084       8.26941408194077E-5      1.6893819960601942E-5    0.8782136045131164       -0.8775822891085164      0.8777174396682006       0.8780784539534325       -0.8780784539534325      -0.8777174396682006      0.8775822891085164       -0.8782136045131164
0.7094048411300297        0.4646646155822576       6.958974828768063E-5     -1.4406428939513876E-5   0.9294803746936193       -0.9291780876354104      0.9290628362038935       0.9295956261251361       -0.9295956261251361      -0.9290628362038935      0.9291780876354104       -0.9294803746936193
0.7123844103316733        0.466668637932168        5.8519602797883264E-5    -1.5255452524909989E-5   0.9334518128626291       -0.9332227388660422      0.9331006952458422       0.9335738564828291       -0.9335738564828291      -0.9331006952458422      0.9332227388660422       -0.9334518128626291
0.7516945873049417        0.4931671473011099       1.071574926595105E-5     1.4155660392707495E-5    0.9864230644915872       -0.9862455247128514      0.9863587699959921       0.9863098192084465       -0.9863098192084465      -0.9863587699959921      0.9862455247128514       -0.9864230644915872
0.7559916324141902        0.4960997015441387       1.0959492640079827E-5    1.3419807366991162E-5    0.9922859607956644       -0.9921128453808894      0.9922202038398245       0.9921786023367294       -0.9921786023367294      -0.9922202038398245      0.9921128453808894       -0.9922859607956644
0.7738978422675378        0.5083199436749417       1.1975195267479493E-5    1.0353435391669062E-5    1.0167172266772515       -1.0165625480225144      1.016645375505647        1.016634399194119        -1.016634399194119       -1.016645375505647       1.0165625480225144       -1.0167172266772515
0.7785773409803114        0.5115100118660778       1.2468891964001862E-5    9.867158525898428E-6     1.0230968990421503       -1.0229431484221603      1.023022085690367        1.023017961773944        -1.023017961773944       -1.023022085690367       1.0229431484221603       -1.0230968990421503
0.7813511742986036        0.5134016491218452       1.2267651261155786E-5    1.1343007266921287E-5    1.0268854732265404       -1.0267211232608393      1.0268118673189741       1.026794729168406        -1.026794729168406       -1.0268118673189741      1.0267211232608393       -1.0268854732265404
0.7831864978276226        0.5146555042127174       9.535355527032913E-6     1.5445848690305572E-5    1.029401397886776        -1.0292206189640927      1.0293441857536145       1.0292778310972546       -1.0292778310972546      -1.0293441857536145      1.0292206189640927       -1.029401397886776
0.786290947347984         0.5167672258140005       1.665933813989212E-5     1.550583435378831E-5     1.0336464529798346       -1.0334224502761662      1.033546496950996        1.0335224063050052       -1.0335224063050052      -1.033546496950996       1.0334224502761662       -1.0336464529798346
0.7922000362131536        0.5208194340415104       9.510542971412578E-6     1.6047480852163863E-5    1.041731589635343        -1.0415461465306983      1.041674526377515        1.0416032097885264       -1.0416032097885264      -1.041674526377515       1.0415461465306983       -1.041731589635343
0.8024897615466056        0.527864836180014        4.138145361358143E-6     1.5216710491871118E-5    1.0558029536380786       -1.0556563910819767      1.055778124765911        1.0556812199541445       -1.0556812199541445      -1.055778124765911       1.0556563910819767       -1.0558029536380786
0.8735425375744789        0.576514859766742        -3.295942058424554E-5    9.480061706060479E-6     1.1529687615185544       -1.1530906775484129      1.1531665180420607       1.152892921024907        -1.152892921024907       -1.1531665180420607      1.1530906775484129       -1.1529687615185544
0.902801970057532         0.5966572530852798       2.084970987621215E-6     3.669100891561287E-5     1.193467525119184        -1.1931614872219347      1.1934550152932588       1.1931739970478599       -1.1931739970478599      -1.1934550152932588      1.1931614872219347       -1.193467525119184
0.9253182826896346        0.6123027463683602       -3.7833733891926534E-6   2.4512590603614895E-5    1.2246921929789667       -1.224518792494474       1.2247148932193022       1.2244960922541384       -1.2244960922541384      -1.2247148932193022      1.224518792494474        -1.2246921929789667
0.9502465913416762        0.6296242186692026       -1.0280347484903037E-5   1.1029593829874981E-5    1.2592617146712692       -1.2592351600055407      1.2593233967561792       1.259173477920631        -1.259173477920631       -1.2593233967561792      1.2592351600055407       -1.2592617146712692
0.9822748531479953        0.6518720233753629       1.6133619751267547E-5    -8.63504085850232E-6     1.303757907446545        -1.3037301860549064      1.3036611057280378       1.3038269877734137       -1.3038269877734137      -1.3036611057280378      1.3037301860549064       -1.303757907446545
0.982852259506789         0.6522741970311359       1.619153240888622E-5     -7.943395680980197E-6    1.304565195076774        -1.3045315930477692      1.304468045882321        1.3046287422422223       -1.3046287422422223      -1.304468045882321       1.3045315930477692       -1.304565195076774
1                         0.6642178990312511       1.791141513789521E-5     1.2596994699048795E-5    1.3285399202867114       -1.3283316758382926      1.328432451795884        1.3284391443291197       -1.3284391443291197      -1.328432451795884       1.3283316758382926       -1.3285399202867114
1.0015354339961144        0.6637685747047444       1.7342582217253844E-5    1.5114966321550221E-5    1.327649637021426        -1.327424661797551       1.3275455815281227       1.3275287172908543       -1.3275287172908543      -1.3275455815281227      1.327424661797551        -1.327649637021426
1.0316904337959265        0.6549441152944753       6.171045927536641E-6     6.456641390223996E-5     1.3101650093823416       -1.3096114517955595      1.310127983106777        1.3096484780711242       -1.3096484780711242      -1.310127983106777       1.3096114517955595       -1.3101650093823416
1.0531893972849822        0.6486155628831448       3.3370822894627237E-5    7.080459114645906E-5     1.2976144565995587       -1.2968477949330204      1.2974142316621915       1.2970480198703875       -1.2970480198703875      -1.2974142316621915      1.2968477949330204       -1.2976144565995587
1.1379274938260135        0.6238460869425081       2.0957992667266687E-6    1.7710774940200665E-5    1.247769304382576        -1.2476150433874553      1.2477567295869765       1.2476276181830552       -1.2476276181830552      -1.2477567295869765      1.2476150433874553       -1.247769304382576
1.1445444540151588        0.6219587943202741       2.2100858669520194E-5    1.791499788212901E-5     1.2440555512080842       -1.2437796260730114      1.2439229460560677       1.243912231225028        -1.243912231225028       -1.2439229460560677      1.2437796260730114       -1.2440555512080842
1.1479271123270942        0.6209939908617121       3.232765141653266E-5     1.801939875688945E-5     1.2421570422727004       -1.2418189211741473      1.241963076364202        1.2420128870826461       -1.2420128870826461      -1.241963076364202       1.2418189211741473       -1.2421570422727004
1.172546975737589         0.6141598218212799       2.8679352619742475E-5    6.520146669560306E-5     1.2286664875672004       -1.2279727997179182      1.2284944114514824       1.2281448758336364       -1.2281448758336364      -1.2284944114514824      1.2279727997179182       -1.2286664875672004
1.1778399345687205        0.6126888043402431       2.8432296379810344E-5    6.923165802358217E-5     1.225739832201719        -1.2250153851592525      1.2255692384234405       1.225185978937531        -1.225185978937531       -1.2255692384234405      1.2250153851592525       -1.225739832201719
1.2185513977607725        0.6013944539698027       2.9971609259696298E-5    4.720803964146365E-5     1.2030676549259496       -1.202510160953261       1.2028878252703918       1.2026899906088184       -1.2026899906088184      -1.2028878252703918      1.202510160953261        -1.2030676549259496
1.2747137983127366        0.5857879610563599       1.8738293794060392E-5    1.8702166697724294E-5    1.1717069456608922       -1.1714448985645471      1.1715945158981282       1.171557328327311        -1.171557328327311       -1.1715945158981282      1.1714448985645471       -1.1717069456608922
1.2865157206470046        0.582508425006181        1.6377733786318257E-5    1.2711965152809054E-5    1.1651168310743316       -1.1649168689503924      1.1650185646716142       1.1650151353531097       -1.1650151353531097      -1.1650185646716142      1.1649168689503924       -1.1651168310743316
1.2888604309631704        0.581881181223025        1.772341449482939E-5     9.066127502166375E-6     1.1638517971995423       -1.1636729276925573      1.1637454567125738       1.1637792681795258       -1.1637792681795258      -1.1637454567125738      1.1636729276925573       -1.1638517971995423
1.3254532334667326        0.5720920794647535       3.8724826933668206E-5    -4.7832763670094215E-5   1.1441090023556273       -1.1442593155033867      1.1438766533940248       1.1444916644649883       -1.1444916644649883      -1.1438766533940248      1.1442593155033867       -1.1441090023556273
1.3537455911159413        0.5645830410211836       4.691536705439894E-5     9.920913966276508E-6     1.1293465117993948       -1.128985652285339       1.1290650195970682       1.1292671444876647       -1.1292671444876647      -1.1290650195970682      1.128985652285339        -1.1293465117993948
1.3581446508087556        0.5634139212641307       1.7402880969561428E-5    1.3160017331669021E-5    1.126932691240496        -1.1267229938160261      1.1268282739546787       1.126827411101843        -1.126827411101843       -1.1268282739546787      1.1267229938160261       -1.126932691240496
1.3589439165788628        0.5632063277618562       1.808205954994071E-5     1.100107166078306E-5     1.1265109059890046       -1.1263144050584195      1.1264024136317048       1.1264228974157184       -1.1264228974157184      -1.1264024136317048      1.1263144050584195       -1.1265109059890046
1.373514494101343         0.5594219079465917       3.0463453232917664E-5    -2.8356406716217045E-5   1.1188217806260166       -1.1188658511603495      1.1186389999066189       1.1190486318797468       -1.1190486318797468      -1.1186389999066189      1.1188658511603495       -1.1188217806260166
1.37567106434906          0.5588778328853647       3.273981017192266E-5     -3.0194167989487625E-5   1.1177331085292865       -1.1177782230121718      1.1175366696682547       1.1179746618732027       -1.1179746618732027      -1.1175366696682547      1.1177782230121718       -1.1177331085292865
1.4048580278159284        0.5515143357064177       6.35479634823119E-5      -5.5066379409707066E-5   1.1029990497856428       -1.103058293040028       1.102617762004749        1.103439580820921        -1.103439580820921       -1.102617762004749       1.103058293040028        -1.1029990497856428
1.459131943892555         0.5375525316512617       1.0477370079843389E-4    -3.949703590460724E-5    1.0752613962612996       -1.0749487303437473      1.074632754056509        1.075577372548537        -1.075577372548537       -1.074632754056509       1.0749487303437473       -1.0752613962612996
1.4696370153705631        0.5348578319538809       5.693766206346911E-5     -4.621110249026226E-5    1.0697016324839905       -1.069729695331533       1.0693600065116098       1.070071321303913        -1.070071321303913       -1.0693600065116098      1.069729695331533        -1.0697016324839905
1.5482680188303037        0.5156368303272901       1.4964403362297045E-4    -9.003287033503951E-6    1.031686579607315        -1.0308607417018465      1.0307887154055768       1.0317586059035833       -1.0317586059035833      -1.0307887154055768      1.0308607417018465       -1.031686579607315
1.5509300302902371        0.514986113379139        1.5278255930166888E-4    -7.743635918970179E-6    1.0303995998925068       -1.02954485362405        1.0294829045366967       1.030461548979859        -1.030461548979859       -1.0294829045366967      1.02954485362405         -1.0303995998925068
1.5515508827277822        0.514831569997035        1.5143909041821538E-4    -7.040135803224123E-6    1.0300892967221116       -1.0292369832660295      1.029180662179602        1.0301456178085378       -1.0301456178085378      -1.029180662179602       1.0292369832660295       -1.0300892967221116
1.5537786511885796        0.5142793608334016       1.3831538205683576E-4    -4.529658739929901E-6    1.0289555491780138       -1.0281618941555937      1.0281256568856725       1.0289917864479337       -1.0289917864479337      -1.0281256568856725      1.0281618941555937       -1.0289555491780138
1.569910835565951         0.5102664688360712       3.750410143373641E-5     1.336474097169122E-5     1.02069890894033         -1.0203669664039556      1.0204738843317276       1.020591991012557        -1.020591991012557       -1.0204738843317276      1.0203669664039556       -1.02069890894033
1.5712279399165983        0.5099422156399012       3.0007598769953025E-5    1.3225065312824095E-5    1.020027354337363        -1.019741508222242       1.019847308744743        1.0199215538148607       -1.0199215538148607      -1.019847308744743       1.019741508222242        -1.020027354337363
1.572294066451012         0.5096797497721545       2.3939575077496585E-5    1.3112005230639407E-5    1.0194837662904637       -1.019235232798155       1.0193401288399986       1.0193788702486188       -1.0193788702486188      -1.0193401288399986      1.019235232798155        -1.0194837662904637
1.5784730589497071        0.5082380639167705       -1.727622027987796E-5    1.7973851406963475E-5    1.0164961945783288       -1.0164560610887539      1.016599851900008        1.0163524037670735       -1.0163524037670735      -1.016599851900008       1.0164560610887539       -1.0164961945783288
1.5816032788003618        0.5075086347805408       -3.455603765779195E-5    2.2851375471094925E-5    1.015005006949992        -1.0150295321721714      1.0152123431759386       1.0148221959462236       -1.0148221959462236      -1.0152123431759386      1.0150295321721714       -1.015005006949992
1.6020516195966439        0.5027846900986912       -7.495952944712556E-5    2.6964229453464267E-5    1.0054523585268544       -1.005686401867911       1.005902115703537        1.005236644691227        -1.005236644691227       -1.005902115703537       1.005686401867911        -1.0054523585268544
1.6273724370122633        0.4969288305641434       -4.609774229894577E-5    2.9709852152868773E-5    0.993838207310001        -0.993877114946573       0.9941147937637946       0.9936005284927785       -0.9936005284927785      -0.9941147937637946      0.993877114946573        -0.993838207310001
1.635659091775613         0.49500705187902816      -3.1197567227861855E-5   2.7838309381524983E-5    0.9900318642938984       -0.9899963432222147      0.9902190496972656       0.9898091578188466       -0.9898091578188466      -0.9902190496972656      0.9899963432222147       -0.9900318642938984
1.7069524132137903        0.47847324065559776      9.699444766410803E-5     1.173669730847825E-5     0.957284411443421        -0.9566085511789699      0.9567024447574366       0.9571905178649538       -0.9571905178649538      -0.9567024447574366      0.9566085511789699       -0.957284411443421
1.7446977378846795        0.4703523273691086       1.0779053922180888E-4    -2.595578912979171E-5    0.9409242031993627       -0.9404851062770714      0.9402774599640321       0.9411318495124016       -0.9411318495124016      -0.9402774599640321      0.9404851062770714       -0.9409242031993627
1.7499348668458514        0.4692255581457764       1.0928848696122474E-4    -3.118558683495458E-5    0.9386542394050958       -0.9382479931780094      0.9379985084833287       0.938903724099776        -0.938903724099776       -0.9379985084833287      0.9382479931780094       -0.9386542394050958
1.8264704058008443        0.45254533946803793      1.3310037051078019E-5    -2.3909580085188967E-5   0.9050349707268875       -0.9051463871452636      0.9049551105045816       0.9052262473675698       -0.9052262473675698      -0.9049551105045816      0.9051463871452636       -0.9050349707268875
1.8481403038772048        0.4478436717191172       7.132557288382286E-5     2.433259512053755E-7     0.8959022934606898       -0.8954723934157784      0.8954743400233874       0.895900346853081        -0.895900346853081       -0.8954743400233874      0.8954723934157784       -0.8959022934606898
1.877015397632361         0.44196329276446505      1.9801761621061515E-4    -5.513708996753857E-5    0.8843000900176908       -0.8835530810401686      0.8831119843204277       0.8847411867374322       -0.8847411867374322      -0.8831119843204277      0.8835530810401686       -0.8843000900176908