% Model:              Prism_potential.mph
% Version:            COMSOL 6.2.0.339
% Date:               May 6 2024, 20:12
% Dimension:          1
% Nodes:              776
% Expressions:        11
% Description:        Line graph
% Arc length (m)          Magnetic scalar potential Magnetic scalar potential Magnetic scalar potential Magnetic scalar potential Magnetic scalar potential Magnetic scalar potential Magnetic scalar potential Magnetic scalar potential Magnetic scalar potential Magnetic scalar potential Magnetic scalar potential
0                         -2.147707031268449E-6    1.7213087679800204E-5    1.4805998816487206E-5    1.0656784424210878E-4    1.1515867236798427E-4    3.289318163572954E-6     -1.1880146289583095E-5   1.1880146289583095E-5    -3.289318163572954E-6    -1.1515867236798427E-4   -1.0656784424210878E-4
0.002416515111563034      9.243822833652514E-4     2.791740255703969E-4     -1.6675137701466903E-4   0.0020192811353823073    -0.0016782479980778813   3.442369819602024E-4     0.0033532921514998646    -0.0033532921514998646   -3.442369819602024E-4    0.0016782479980778813    -0.0020192811353823073
0.005946536813166545      0.0022779391567920395    6.625282982869265E-4     -4.31713215339404E-4     0.00481661034708652      -0.004295146280080817    8.414405573652608E-4     0.008270316069801982     -0.008270316069801982    -8.414405573652608E-4    0.004295146280080817     -0.00481661034708652
0.007310055960225763      0.002801277950240006     8.102204351023912E-4     -5.339032149308073E-4    0.0058976043460632335    -0.0053075074548959685   0.0010362817354491848    0.01016883006550992      -0.01016883006550992     -0.0010362817354491848   0.0053075074548959685    -0.0058976043460632335
0.011596936696693556      0.004446422406459822     0.001274432360779507     -8.552792922486525E-4    0.009295024726262834     -0.008490664899575638    0.0016484305615860854    0.01613725906425229      -0.01613725906425229     -0.0016484305615860854   0.008490664899575638     -0.009295024726262834
0.012456190520947617      0.004776055368987725     0.0013673926435356384    -9.197806036249432E-4    0.009975166254081874     -0.009129055221868215    0.0017708103928683367    0.017333411083081656     -0.017333411083081656    -0.0017708103928683367   0.009129055221868215     -0.009975166254081874
0.015797684869210887      0.006057942804571122     0.001728899628636613     -0.0011706154109143389   0.012620122851394008     -0.01161164836688967     0.0022467250795746253    0.02198504613870896      -0.02198504613870896     -0.0022467250795746253   0.01161164836688967      -0.012620122851394008
0.11806763172432282       0.04528831022265632      0.012793814773529753     -0.008848529179306647    0.09356394804867464      -0.0875892928419501      0.016801059407496398     0.16435218148312825      -0.16435218148312825     -0.016801059407496398    0.0875892928419501       -0.09356394804867464
0.1183081359093367        0.045380655701226        0.012819606381232623     -0.008866501999998316    0.09375412254615592      -0.08776850025874754     0.01683648425876047      0.16468613854614284      -0.16468613854614284     -0.01683648425876047     0.08776850025874754      -0.09375412254615592
0.13304385033554186       0.05103867200840741      0.014399860652817231     -0.009967698443338927    0.10540613220191011      -0.09874855583171893     0.019006968285006993     0.18514771974862193      -0.18514771974862193     -0.019006968285006993    0.09874855583171893      -0.10540613220191011
0.21315510962104073       0.08171245198160484      0.023007636694138606     -0.015965617764186927    0.16858534298887706      -0.15826446493754182     0.030539522824045748     0.29631028510237295      -0.29631028510237295     -0.030539522824045748    0.15826446493754182      -0.16858534298887706
0.23075501769963663       0.08845031271172478      0.02490009149739538      -0.017282506251839164    0.18247087490827835      -0.17133037593862033     0.03307032592390636      0.32073092492299216      -0.32073092492299216     -0.03307032592390636     0.17133037593862033      -0.18247087490827835
0.23778726771518682       0.09113538462193933      0.025650536933859106     -0.017806067786560513    0.18799810889921317      -0.17654342958854363     0.03409488729605888      0.33044665119169775      -0.33044665119169775     -0.03409488729605888     0.17654342958854363      -0.18799810889921317
0.25439210962592074       0.0974690935989834       0.02743353452785074      -0.01904022640991531     0.20107788514185704      -0.18879848925407605     0.036476677974752944     0.35339969642118         -0.35339969642118        -0.036476677974752944    0.18879848925407605      -0.20107788514185704
0.31472013030426904       0.1205078254332977       0.03386278000966153      -0.023532551810257103    0.24847378365455083      -0.23355751807863948     0.04529710359658204      0.43673419813660813      -0.43673419813660813     -0.04529710359658204     0.23355751807863948      -0.24847378365455083
0.31531931360328913       0.12073664817918761      0.03392663585102157      -0.02357716998806871     0.24894452395916436      -0.2340020687575856      0.045384708853035374     0.4375618838637145       -0.4375618838637145      -0.045384708853035374    0.2340020687575856       -0.24894452395916436
0.31664374509462534       0.12124536197878417      0.03406596159391523      -0.02367581625172696     0.2499853437324054       -0.23499610418273073     0.04558957416891446      0.4393918737462216       -0.4393918737462216      -0.04558957416891446     0.23499610418273073      -0.2499853437324054
0.3494046142414585        0.13374300863454658      0.03750067416636231      -0.026115553838170665    0.2755258244154967       -0.2594462101226891      0.05052177941732319      0.4844502551208625       -0.4844502551208625      -0.05052177941732319     0.2594462101226891       -0.2755258244154967
0.4105125343728705        0.15705451451212377      0.04390734612035539      -0.030666327167956312    0.3231657587134877       -0.3050522993350069      0.0597216819913557       0.5684963760571387       -0.5684963760571387      -0.0597216819913557      0.3050522993350069       -0.3231657587134877
0.419152671102918         0.16034167520456985      0.04481308842306365      -0.03130816987917086     0.3298899361616465       -0.31147676465663254     0.06101140562326497      0.5803552951950138       -0.5803552951950138      -0.06101140562326497     0.31147676465663254      -0.3298899361616465
0.42042575147105266       0.16082602167676213      0.04494654496202755      -0.03140274215049105     0.33088070963764193      -0.3124233770694061      0.061201439865477034     0.5821026468415708       -0.5821026468415708      -0.061201439865477034    0.3124233770694061       -0.33088070963764193
0.45612978965026446       0.17448359750924827      0.04868642971238275      -0.03402351171976477     0.3589324372765849       -0.3390019527604077      0.0668138590022888       0.6311205310347038       -0.6311205310347038      -0.0668138590022888      0.3390019527604077       -0.3589324372765849
0.47435669985350226       0.18144177837695874      0.05052215667515257      -0.03536254426965656     0.3729998497007481       -0.35276726380708623     0.06986690964983311      0.6559002038580012       -0.6559002038580012      -0.06986690964983311     0.35276726380708623      -0.3729998497007481
0.4973845912520867        0.19021738244833172      0.052866778583186995     -0.03704915919571018     0.39083846386338283      -0.3700310659299434      0.07363779236426127      0.6872317374290648       -0.6872317374290648      -0.07363779236426127     0.3700310659299434       -0.39083846386338283
0.5359926451243808        0.20488154758223942      0.05669679225666612      -0.039821723919050166    0.4205665762582757       -0.39895961407068126     0.08038582271827933      0.7391403676106775       -0.7391403676106775      -0.08038582271827933     0.39895961407068126      -0.4205665762582757
0.542696784935865         0.20742285344364086      0.057374755431775656     -0.04031418929179956     0.4257132160154097       -0.4039781977591531      0.08146468342475607      0.7482267303498065       -0.7482267303498065      -0.08146468342475607     0.4039781977591531       -0.4257132160154097
0.5744998829022735        0.21947830001029983      0.060590877094198525     -0.04265034649242713     0.45012784533348593      -0.42778535470771273     0.08658258276829506      0.7913306172729033       -0.7913306172729033      -0.08658258276829506     0.42778535470771273      -0.45012784533348593
0.618831504890935         0.23626875914051942      0.06512014832292871      -0.045916509462667954    0.4842319253991524       -0.46084311116292465     0.09351103546158039      0.8515640011004965       -0.8515640011004965      -0.09351103546158039     0.46084311116292465      -0.4842319253991524
0.6320696546123792        0.24125821379832715      0.06644010572922246      -0.04687207775393957     0.49434843376856263      -0.47068442142474537     0.09570779939322818      0.8693250558000797       -0.8693250558000797      -0.09570779939322818     0.47068442142474537      -0.49434843376856263
0.6593135508022681        0.2514771427590652       0.06924390935755365      -0.04882427628100233     0.5153889084667812       -0.49051966256947893     0.09992545232145966      0.9059831187148004       -0.9059831187148004      -0.09992545232145966     0.49051966256947893      -0.5153889084667812
0.67170257143744          0.25612414775723175      0.0705189245303562       -0.04971202844637396     0.5249569553200354       -0.4995396357088909      0.10184340813789858      0.9226531828910277       -0.9226531828910277      -0.10184340813789858     0.4995396357088909       -0.5249569553200354
0.685288869557392         0.2612499717624759       0.07181163633453902      -0.05068361366501239     0.5352003978685185       -0.5097994891813844      0.1043305798612847       0.9406693071886182       -0.9406693071886182      -0.1043305798612847      0.5097994891813844       -0.5352003978685185
0.7319364134941495        0.2788089496781718       0.07623538263113178      -0.054045883949821696    0.5701405114504515       -0.5450952872622353      0.11272821566366113      1.0025075830490255       -1.0025075830490255      -0.11272821566366113     0.5450952872622353       -0.5701405114504515
0.7357450650743438        0.28024259491093856      0.0765965700999884       -0.054320404641642915    0.5729932815552701       -0.5479770980884838      0.11341386095533991      1.007556518688414        -1.007556518688414       -0.11341386095533991     0.5479770980884838       -0.5729932815552701
0.7365567163358455        0.2805497505375286       0.07667751163467629      -0.054378099843375514    0.5736196366055835       -0.5485793655445307      0.1135545667975259       1.0086444353525879       -1.0086444353525879      -0.1135545667975259      0.5485793655445307       -0.5736196366055835
0.7384289374281123        0.28125710255167496      0.07685089363859482      -0.05451150277942334     0.5750208749014404       -0.550007535305259       0.11391551306987173      1.0111128971368275       -1.0111128971368275      -0.11391551306987173     0.550007535305259        -0.5750208749014404
0.7818690052161184        0.2975852508072977       0.08098295050366164      -0.05760072505657058     0.6077164528992975       -0.5826245503298932      0.12181874987732787      1.0685222533518628       -1.0685222533518628      -0.12181874987732787     0.5826245503298932       -0.6077164528992975
0.8029509122935907        0.30544318186625874      0.08297866233259749      -0.05906476159274532     0.6235633043593282       -0.5982094231057067      0.12569133036374347      1.0960813971012913       -1.0960813971012913      -0.12569133036374347     0.5982094231057067       -0.6235633043593282
0.804654277185874         0.3060786884160357       0.08313827160680345      -0.05918589277825921     0.6248286205394442       -0.5994861331246982      0.1259989908986238       1.0983157627655187       -1.0983157627655187      -0.1259989908986238      0.5994861331246982       -0.6248286205394442
0.8408515029421071        0.3195834718925842       0.08653003631757976      -0.061759981799367064    0.6517171255404386       -0.6266167620298977      0.1325369076349604       1.1457969799353758       -1.1457969799353758      -0.1325369076349604      0.6266167620298977       -0.6517171255404386
0.8548442145535143        0.32482915735338336      0.08786456806499683      -0.06273967288104212     0.662293327377588        -0.637023302035945       0.13510591898760727      1.1642107104259256       -1.1642107104259256      -0.13510591898760727     0.637023302035945        -0.662293327377588
0.8807467527631466        0.33452512027027503      0.09011604391836102      -0.06453660508871874     0.6812519519407573       -0.6568485291403423      0.14055568843059152      1.1975447926505078       -1.1975447926505078      -0.14055568843059152     0.6568485291403423       -0.6812519519407573
0.9037465216609624        0.34311296613479336      0.09218724238530147      -0.06612104848444567     0.6983034654877076       -0.6741483990514654      0.14518001117589902      1.2272718533632734       -1.2272718533632734      -0.14518001117589902     0.6741483990514654       -0.6983034654877076
0.9220057617161723        0.34990547684026047      0.09381792854320778      -0.06739193023840838     0.7116970183565099       -0.6879248890045315      0.14878944709726355      1.2508324602637775       -1.2508324602637775      -0.14878944709726355     0.6879248890045315       -0.7116970183565099
0.9294906376437846        0.3527008646731585       0.09449042238073793      -0.06790664569837333     0.7172464136950365       -0.6935570449975968      0.1503038794106092       1.2604995792820237       -1.2604995792820237      -0.1503038794106092      0.6935570449975968       -0.7172464136950365
0.9438926906136268        0.35807962098522106      0.09578440399962783      -0.06889703744173747     0.7279243042023749       -0.7043941797385088      0.15321788020460814      1.2791006037362753       -1.2791006037362753      -0.15321788020460814     0.7043941797385088       -0.7279243042023749
0.99392017428739          0.3768118470215511       0.10006069086725797      -0.0722766024485262      0.7646993568507707       -0.7425480312354337      0.16433521164722328      1.3429121764389806       -1.3429121764389806      -0.16433521164722328     0.7425480312354337       -0.7646993568507707
1.048498951411803         0.39681406808542385      0.10464382844392038      -0.07594583390564509     0.8037762858800275       -0.7834799864616672      0.17591331521650574      1.411342957125189        -1.411342957125189       -0.17591331521650574     0.7834799864616672       -0.8037762858800275
1.0660655142702469        0.4032838941189739       0.10609241431335228      -0.07713978227440663     0.8162859020803771       -0.7968496743955178      0.17973141620026398      1.4334041602756311       -1.4334041602756311      -0.17973141620026398     0.7968496743955178       -0.8162859020803771
1.0837671932144761        0.40980348387559334      0.1075521422174656       -0.07834291409194624     0.8288917380357975       -0.8103221974665752      0.1835788847310043       1.4556350507713682       -1.4556350507713682      -0.1835788847310043      0.8103221974665752       -0.8288917380357975
1.084093826913818         0.4099232742848355       0.10758052935397827      -0.07836475805803965     0.8291291043994462       -0.8105639927398951      0.183645928275577        1.4560471688637642       -1.4560471688637642      -0.183645928275577       0.8105639927398951       -0.8291291043994462
1.0841239067111719        0.4099343563751193       0.10758330416019134      -0.07836682426741157     0.8291513281611654       -0.8105860973393111      0.18365150320001772      1.4560859223004587       -1.4560859223004587      -0.18365150320001772     0.8105860973393111       -0.8291513281611654
1.0904120420388372        0.4122510502875574       0.10816337312709115      -0.07879876215558598     0.8337971713340432       -0.8152070298161854      0.18481693257149678      1.464187268578732        -1.464187268578732       -0.18481693257149678     0.8152070298161854       -0.8337971713340432
1.095280318284399         0.41406556530249317      0.10855879667489553      -0.07913149610189561     0.8372815362220895       -0.8189807249878824      0.1859287561727168       1.4703335050372552       -1.4703335050372552      -0.1859287561727168      0.8189807249878824       -0.8372815362220895
1.0996988743388296        0.41566558679595655      0.10893928162147376      -0.07942056223875191     0.8404667695013258       -0.8221955776824996      0.18683107977248375      1.4758312674113419       -1.4758312674113419      -0.18683107977248375     0.8221955776824996       -0.8404667695013258
1.1167204658175716        0.42197899520107296      0.11030459869919733      -0.08052370176708286     0.8527769794314056       -0.8351390013728857      0.19094938723622212      1.4969665935680692       -1.4969665935680692      -0.19094938723622212     0.8351390013728857       -0.8527769794314056
1.2370498824415646        0.4659490087795664       0.11949077847936523      -0.08827728083475163     0.9372612296582212       -0.9265348054600437      0.22031655878203005      1.6434794763362341       -1.6434794763362341      -0.22031655878203005     0.9265348054600437       -0.9372612296582212
1.24552862471278          0.46903053181457205      0.12012602823131129      -0.0888300799960286      0.9431188283389628       -0.9330032989193248      0.22236265895109528      1.6537594683071917       -1.6537594683071917      -0.22236265895109528     0.9330032989193248       -0.9431188283389628
1.2531496642892332        0.47183326796215624      0.12071488386447153      -0.08931572435981983     0.9485482900784471       -0.9387847817701774      0.2242589868916181       1.6630740849570056       -1.6630740849570056      -0.2242589868916181      0.9387847817701774       -0.9485482900784471
1.2601011060295144        0.47438975082093954      0.12125200161412829      -0.08975869916234167     0.9535007098348964       -0.944058293448861       0.22598870015012695      1.6715703031336298       -1.6715703031336298      -0.22598870015012695     0.944058293448861        -0.9535007098348964
1.265481780593477         0.47634125045169734      0.12164975024024789      -0.09010665829163295     0.9572051184576057       -0.948159883349183       0.22730661701611854      1.6780583847906692       -1.6780583847906692      -0.22730661701611854     0.948159883349183        -0.9572051184576057
1.2687878186463546        0.4775672817548161       0.12190767324637525      -0.09031090172926683     0.9596139763316897       -0.9506551506875738      0.2281679368534384       1.682101190165824        -1.682101190165824       -0.2281679368534384      0.9506551506875738       -0.9596139763316897
1.2696342887035037        0.477881191870374        0.12197371123451839      -0.09036319572938452     0.960230734526764        -0.9512940329547309      0.22838846711965394      1.68313630036184         -1.68313630036184        -0.22838846711965394     0.9512940329547309       -0.960230734526764
1.275957053282982         0.48019610184109884      0.12237761250106317      -0.0907627074913638      0.9644742112199312       -0.9563101961444636      0.2302085362135524       1.6905758711508416       -1.6905758711508416      -0.2302085362135524      0.9563101961444636       -0.9644742112199312
1.2777870649048753        0.48086611131192647      0.12249451453063953      -0.0908783390570049      0.965702409987751        -0.9577620352599541      0.23073532280391412      1.6927291224437904       -1.6927291224437904      -0.23073532280391412     0.9577620352599541       -0.965702409987751
1.286355001017146         0.48406068875812913      0.12307913274658949      -0.09141117538121998     0.971714074231146        -0.9645286808013698      0.2332392777516092       1.7030034772809062       -1.7030034772809062      -0.2332392777516092      0.9645286808013698       -0.971714074231146
1.2977837429856598        0.4882076938176473       0.123929027610471        -0.09211596537751282     0.9797386089566555       -0.9730921663139331      0.23616444329382977      1.716666331976758        -1.716666331976758       -0.23616444329382977     0.9730921663139331       -0.9797386089566555
1.3215373233076426        0.49686561448464295      0.12561902828684446      -0.09360238489858498     0.9961787742354784       -0.9912836837030926      0.2424646045144121       1.7449978534241586       -1.7449978534241586      -0.2424646045144121      0.9912836837030926       -0.9961787742354784
1.331469490402977         0.5004176954318431       0.126277501672183        -0.09421174706202784     1.0028209076321228       -0.9988498740952488      0.24515589759902537      1.7565148841283462       -1.7565148841283462      -0.24515589759902537     0.9988498740952488       -1.0028209076321228
1.3663836922809245        0.5129042021616393       0.12859221028373707      -0.09635381670171603     1.0261697683676245       -1.0254470402789317      0.2546165066652027       1.7970003019813536       -1.7970003019813536      -0.2546165066652027      1.0254470402789317       -1.0261697683676245
1.4267551790823698        0.5349599605173442       0.13255842328308473      -0.09995365438734206     1.067780573334573        -1.0720592687348025      0.2724300336360654       1.8674098084333106       -1.8674098084333106      -0.2724300336360654      1.0720592687348025       -1.067780573334573
1.439106726469643         0.5394215694817658       0.13333106720216295      -0.10067167810404126     1.0761496281538545       -1.081536649773208       0.27616322494087725      1.8815230529861857       -1.8815230529861857      -0.27616322494087725     1.081536649773208        -1.0761496281538545
1.4729368138449268        0.5515868634037722       0.13534078856560106      -0.10261037159260128     1.0987546061339413       -1.107592847481147       0.2867098747403356       1.9196375788747528       -1.9196375788747528      -0.2867098747403356      1.107592847481147        -1.0987546061339413
1.4815739348150512        0.5546393277899102       0.13585384744231851      -0.10314086793415181     1.1042767261701678       -1.1142805849894728      0.28915364151625733      1.9294036696433836       -1.9294036696433836      -0.28915364151625733     1.1142805849894728       -1.1042767261701678
1.4862527233183538        0.5562928689786935       0.1361317750043159       -0.10342824149213212     1.1072680970018054       -1.1179033789129684      0.29047744697591066      1.9346940289388637       -1.9346940289388637      -0.29047744697591066     1.1179033789129684       -1.1072680970018054
1.502275217824291         0.5620310696105424       0.13704420863932643      -0.10432377644317045     1.1178996593663812       -1.1302246190757876      0.2956344075304233       1.9524898709117462       -1.9524898709117462      -0.2956344075304233      1.1302246190757876       -1.1178996593663812
1.5087981623851157        0.5643671580758292       0.13741567102393829      -0.1046883591762611      1.122227892518428        -1.1352407397848885      0.2977338663747988       1.9597347659285178       -1.9597347659285178      -0.2977338663747988      1.1352407397848885       -1.122227892518428
1.5566761296316445        0.5815931543228917       0.14008916913449165      -0.10741568658037803     1.1537910697277451       -1.172581547563821       0.3132560549207958       2.013116562370771        -2.013116562370771       -0.3132560549207958      1.172581547563821        -1.1537910697277451
1.5628573243126747        0.5837896284235939       0.14040634272457014      -0.10776514749580665     1.1577376950376705       -1.1774208186567043      0.3152996386902502       2.0198588750041253       -2.0198588750041253      -0.3152996386902502      1.1774208186567043       -1.1577376950376705
1.6028731774833913        0.5980091749097645       0.14245966291025547      -0.11002748955139856     1.1832873803447002       -1.2087493192943572      0.3285294028831679       2.06350729675589         -2.06350729675589        -0.3285294028831679      1.2087493192943572       -1.1832873803447002
1.6125560485468338        0.6014919687563904       0.14293921280333854      -0.11053420484120949     1.1896647565579574       -1.2163031184676039      0.33202947973792696      2.0739383952876347       -2.0739383952876347      -0.33202947973792696     1.2163031184676039       -1.1896647565579574
1.6157069520118683        0.6026194759939927       0.14309607865290686      -0.11069728490659372     1.1917380483203297       -1.2187398556556401      0.33316157640288935      2.077316327573081        -2.077316327573081       -0.33316157640288935     1.2187398556556401       -1.1917380483203297
1.6570513663778452        0.6174140030080228       0.1451543856611641       -0.11283713142137797     1.2189426373140249       -1.250713374718066       0.34801632334704113      2.1216396886850504       -2.1216396886850504      -0.34801632334704113     1.250713374718066        -1.2189426373140249
1.6710800067528442        0.6224729560047544       0.14588262863452295      -0.11356383405092635     1.228338461709371        -1.261553362309646       0.3530426899022341       2.1368491341167832       -2.1368491341167832      -0.3530426899022341      1.261553362309646        -1.228338461709371
1.675286277722667         0.6239570722829664       0.14606607290002402      -0.11377542025431125     1.2310106822487588       -1.2648176068831063      0.35461424484861537      2.1412140442832506       -2.1412140442832506      -0.35461424484861537     1.2648176068831063       -1.2310106822487588
1.677924481435169         0.6248869029874875       0.14618057040828183      -0.11391580958499913     1.2326522788598229       -1.2668953330901265      0.3555688564101326       2.1439787555398175       -2.1439787555398175      -0.3555688564101326      1.2668953330901265       -1.2326522788598229
1.6817030058842142        0.6262186379228366       0.14634455760618353      -0.11411687992535063     1.2350034289628204       -1.269871122728526       0.3569360833257199       2.147938468365627        -2.147938468365627       -0.3569360833257199      1.269871122728526        -1.2350034289628204
1.7565430808037097        0.6083841771541031       0.14958540942167015      -0.11789972104466329     1.193925698394562        -1.2396110102218494      0.29641324186454227      2.1371234667518704       -2.1371234667518704      -0.29641324186454227     1.2396110102218494       -1.193925698394562
1.7628277037396969        0.606889394919975        0.1498448387879227       -0.11821399780591235     1.1904573149800675       -1.2371002646998317      0.29138828225253205      2.136169297427368        -2.136169297427368       -0.29138828225253205     1.2371002646998317       -1.1904573149800675
1.765564797907818         0.606238383749167        0.1499578260924344       -0.11835087238043378     1.188946756253901        -1.2360067787427664      0.28919979969929543      2.135753735297373        -2.135753735297373       -0.28919979969929543     1.2360067787427664       -1.188946756253901
1.7708500679906907        0.6049190619465445       0.1501809465675776       -0.11860170736311253     1.1859741341433703       -1.2337021136428066      0.28488845473790564      2.1347877930482726       -2.1347877930482726      -0.28488845473790564     1.2337021136428066       -1.1859741341433703
1.7715632967747537        0.6047468539347076       0.1502109016716001       -0.1186351111083531      1.1855859684508014       -1.2334014472880275      0.2843205584212019       2.134666857317628        -2.134666857317628       -0.2843205584212019      1.2334014472880275       -1.1855859684508014
1.7732529749893051        0.6043388836838232       0.15028186696045598      -0.11871424641791804     1.184666382577341        -1.2326891521579513      0.28297518081460604      2.1343803539206867       -2.1343803539206867      -0.28297518081460604     1.2326891521579513       -1.184666382577341
1.7744203236293512        0.6040647763222492       0.15031950663539778      -0.11876811128871688     1.184015627395823        -1.2322434778931735      0.2820985875834373       2.1341605177055594       -2.1341605177055594      -0.2820985875834373      1.2322434778931735       -1.184015627395823
1.7763083164878812        0.6036214531166799       0.1503803825683022       -0.1188552287854999      1.1829631387962656       -1.2315226736704534      0.2806808433864535       2.1338049690802663       -2.1338049690802663      -0.2806808433864535      1.2315226736704534       -1.1829631387962656
1.7828187393321948        0.602034538042921        0.15059051743967694      -0.11915050435321789     1.1792386109919997       -1.2288995411796833      0.2756955063539392       2.132442645817745        -2.132442645817745       -0.2756955063539392      1.2288995411796833       -1.1792386109919997
1.8067583690031532        0.5964039001489065       0.15142530098608215      -0.12031678305110599     1.1658165710516342       -1.2197990295439913      0.25726476513514246      2.128350835460484        -2.128350835460484       -0.25726476513514246     1.2197990295439913       -1.1658165710516342
1.8471554774844647        0.5868139910164342       0.15302162513709006      -0.12228640573088945     1.1435472345205788       -1.2037087295451565      0.22541748369804018      2.1218384803676966       -2.1218384803676966      -0.22541748369804018     1.2037087295451565       -1.1435472345205788
1.8571660994658186        0.5845559764509018       0.1533318158744788       -0.12272154813908603     1.1382212079688945       -1.2000026978347123      0.218230312722023        2.1199935930815847       -2.1199935930815847      -0.218230312722023       1.2000026978347123       -1.1382212079688945