% Model:              Prism_potential.mph
% Version:            COMSOL 6.2.0.339
% Date:               May 6 2024, 20:12
% Dimension:          1
% Nodes:              764
% Expressions:        11
% Description:        Line graph
% Arc length (m)          Magnetic scalar potential Magnetic scalar potential Magnetic scalar potential Magnetic scalar potential Magnetic scalar potential Magnetic scalar potential Magnetic scalar potential Magnetic scalar potential Magnetic scalar potential Magnetic scalar potential Magnetic scalar potential
1.8852107375177955E-15    -2.1477070319911704E-6   1.721308767959522E-5     1.4805998816345474E-5    1.0656784423948183E-4    1.151586723682485E-4     3.2893181621746273E-6    -1.1880146291076178E-5   1.1880146291076178E-5    -3.2893181621746273E-6   -1.151586723682485E-4    -1.0656784423948183E-4
0.0021403700545412283     -8.23100620710472E-4     -2.146944023514772E-4    -1.4605236113364786E-4   -0.002874493893010669    4.1790858983202636E-4    -0.001586327478901545    -0.0017060750039412913   0.0017060750039412913    0.001586327478901545     -4.1790858983202636E-4   0.002874493893010669
0.010379290170400141      -0.003979725722776659    -0.0011057787885598845   -7.63894094559528E-4     -0.014332364189471796    0.0015865387016356306    -0.007697691458112211    -0.008221211432995352    0.008221211432995352     0.007697691458112211     -0.0015865387016356306   0.014332364189471796
0.0115951449398312        -0.004445442842029967    -0.001236587993315858    -8.550628716098381E-4    -0.016020901150447575    0.0017608702176730856    -0.008601373190552146    -0.009180398177568652    0.009180398177568652     0.008601373190552146     -0.0017608702176730856   0.016020901150447575
0.03820691683464925       -0.014651970075457136    -0.004115782816511193    -0.0028530278458608212   -0.0530633999838918      0.005544480317937406     -0.02836870308482441     -0.03023917721700502     0.03023917721700502      0.02836870308482441      -0.005544480317937406    0.0530633999838918
0.04578885767019046       -0.01755982694429521     -0.00493586122020186     -0.0034223002128021865   -0.06361643840040539     0.006622869376776072     -0.034001271079194026    -0.0362380366979877      0.0362380366979877       0.034001271079194026     -0.006622869376776072    0.06361643840040539
0.06485122970602436       -0.024870845015139253    -0.006998246754304066    -0.004853256002442067    -0.09014945430295958     0.009333925757597953     -0.04815997377713502     -0.051323406283422836    0.051323406283422836     0.04815997377713502      -0.009333925757597953    0.09014945430295958
0.10657864290591287       -0.040874617860432776    -0.011512795793488781    -0.007985609278982446    -0.1482300602172622      0.015268411224469192     -0.07915328545632945     -0.08434518598540242     0.08434518598540242      0.07915328545632945      -0.015268411224469192    0.1482300602172622
0.1242782307899484        -0.047667170555801566    -0.013408043500510933    -0.00930740047286444     -0.17278807350459421     0.017880608718612342     -0.09233981250152856     -0.09832886972167847     0.09832886972167847      0.09233981250152856      -0.017880608718612342    0.17278807350459421
0.14307595048553912       -0.05487080367707693     -0.015434317283283568    -0.010717941940156062    -0.1989163269646293      0.020566887743678684     -0.10631042326492784     -0.11317279144338063     0.11317279144338063      0.10631042326492784      -0.020566887743678684    0.1989163269646293
0.1512002124126442        -0.05798417079030919     -0.016310060682688143    -0.011327569518654757    -0.2102088017033023      0.021727881457934695     -0.11234843760717342     -0.1195882455540641      0.1195882455540641       0.11234843760717342      -0.021727881457934695    0.2102088017033023
0.21498549385636623       -0.08242490900631219     -0.023168676963378813    -0.0161018957114427      -0.298763431748532       0.030936204276716846     -0.15975136996825917     -0.16994826605699026     0.16994826605699026      0.15975136996825917      -0.030936204276716846    0.298763431748532
0.24106361559174228       -0.09239284980561614     -0.025948768464734928    -0.01804416933584173     -0.33480868234880445     0.034762716873660324     -0.17911607156039486     -0.19045532766207043     0.19045532766207043      0.17911607156039486      -0.034762716873660324    0.33480868234880445
0.2779407243132844        -0.1065301127905514      -0.02983345218494301     -0.020777745710589938    -0.3856715649782922      0.040448886183913756     -0.20667085186863401     -0.21944959929357233     0.21944959929357233      0.20667085186863401      -0.040448886183913756    0.3856715649782922
0.30321278794483764       -0.11619737298400534     -0.032542863824021426    -0.02267260050347221     -0.4207137394539644      0.04407575248205728      -0.22545655650983565     -0.23933293542618636     0.23933293542618636      0.22545655650983565      -0.04407575248205728     0.4207137394539644
0.31742769468522575       -0.12162463960765804     -0.034074390627234746    -0.02374039601577054     -0.44043403516010304     0.04606452327052941      -0.2359876913966944      -0.25051086703393843     0.25051086703393843      0.2359876913966944       -0.04606452327052941     0.44043403516010304
0.33798146631563963       -0.12948766640296144     -0.03625241100092631     -0.0252894534659599      -0.4688903796725421      0.04906028593930416      -0.251375913666984       -0.2665747519448625      0.2665747519448625       0.251375913666984        -0.04906028593930416     0.4688903796725421
0.3581160070886154        -0.13717053226158385     -0.0383810649298112      -0.026802712563104437    -0.49669510956501983     0.051987019481316156     -0.26640871998615223     -0.28227340906018383     0.28227340906018383      0.26640871998615223      -0.051987019481316156    0.49669510956501983
0.3607700066297479        -0.1381832358883154      -0.03866164975238997     -0.027002180184180092    -0.5003601417705218      0.05237280178274031      -0.2683902432561816      -0.2843427002970806      0.2843427002970806       0.2683902432561816       -0.05237280178274031     0.5003601417705218
0.3762789592822198        -0.14407755476898193     -0.04029151140691399     -0.02814285794086127     -0.5216010755221516      0.05470914355377654      -0.2798520070806674      -0.29645821199526096     0.29645821199526096      0.2798520070806674       -0.05470914355377654     0.5216010755221516
0.4204257514710533        -0.16085594571197254     -0.04493097129638322     -0.03138983825004437     -0.582064158313273       0.061359624534617595     -0.3124783305349732      -0.33094545231291744     0.33094545231291744      0.3124783305349732       -0.061359624534617595    0.582064158313273
0.431799195757273         -0.16521400394201036     -0.046117215969170754    -0.03222635847683639     -0.5976850896988792      0.06317092606916253      -0.32098179388385434     -0.3398742218841876      0.3398742218841876       0.32098179388385434      -0.06317092606916253     0.5976850896988792
0.44391006328335947       -0.16981074871483248     -0.04735690991280486     -0.03311501026802644     -0.6141522682401861      0.0650907266191443       -0.33001080876335653     -0.34923218609597406     0.34923218609597406      0.33001080876335653      -0.0650907266191443      0.6141522682401861
0.45812790255727665       -0.17522124116555374     -0.04882493460037272     -0.034159850048977404    -0.633556686328136       0.06732827833407942      -0.34060707872589935     -0.36027788593631627     0.36027788593631627      0.34060707872589935      -0.06732827833407942     0.633556686328136
0.4701558528721925        -0.1797983877433666      -0.05006684820362528     -0.03504375939203635     -0.6499723576657551      0.06922119330771169      -0.34957126844400316     -0.36962228252946383     0.36962228252946383      0.34957126844400316      -0.06922119330771169     0.6499723576657551
0.49945212118157445       -0.19095031529121712     -0.05308134822218493     -0.03722344732520057     -0.6900384645497921      0.07376279661507687      -0.37155037521668205     -0.392250885948187       0.392250885948187        0.37155037521668205      -0.07376279661507687     0.6900384645497921
0.5252551096244207        -0.20071158965113328     -0.05571186633327968     -0.03911171358530747     -0.7250056326433364      0.07784072596119732      -0.39073443464365776     -0.4121119239608759      0.4121119239608759       0.39073443464365776      -0.07784072596119732     0.7250056326433364
0.5255321893388163        -0.2008162572471097      -0.05573987060964585     -0.03913230455906746     -0.7253813445594277      0.07788368442901163      -0.39094212090155206     -0.41232290808688726     0.41232290808688726      0.39094212090155206      -0.07788368442901163     0.7253813445594277
0.5581789375164301        -0.21323254504257083     -0.059056318077312514    -0.04152408568245237     -0.7697303870468895      0.08319979312339426      -0.41539247858301387     -0.43753770158726984     0.43753770158726984      0.41539247858301387      -0.08319979312339426     0.7697303870468895
0.5709747356937227        -0.21809690824997371     -0.060364375559342064    -0.042443614416607045    -0.7870614008444026      0.08532623215549262      -0.4248751474883496      -0.44751248551154554     0.44751248551154554      0.4248751474883496       -0.08532623215549262     0.7870614008444026
0.5772691730824333        -0.22050023732292748     -0.06099389302023442     -0.04289666965624381     -0.7955688323315342      0.08643211696017611      -0.4296054742101272      -0.4523954750815831      0.4523954750815831       0.4296054742101272       -0.08643211696017611     0.7955688323315342
0.5944094721829531        -0.22704471089594075     -0.06270812368174633     -0.04413037837981611     -0.818735306356386       0.08944353722737775      -0.44248656426590727     -0.4656922793178563      0.4656922793178563       0.44248656426590727      -0.08944353722737775     0.818735306356386
0.6228840110591594        -0.23774368222375175     -0.06553392452957468     -0.0461980260799659      -0.8568812423560921      0.0940934865389155       -0.4636776951786433      -0.4872970337163641      0.4872970337163641       0.4636776951786433       -0.0940934865389155      0.8568812423560921
0.626975483997559         -0.23927646299765717     -0.06595414491239682     -0.04649161601693834     -0.8623818248002592      0.09472402719037018      -0.4666569553258775      -0.49044889666475155     0.49044889666475155      0.4666569553258775       -0.09472402719037018     0.8623818248002592
0.6387170872405621        -0.24367519762859943     -0.06716008250113485     -0.04733415282653465     -0.878167254066743       0.09653353644765543      -0.4752067590599332      -0.499494031454465       0.499494031454465        0.4752067590599332       -0.09653353644765543     0.878167254066743
0.6406447732980656        -0.24440005065932205     -0.06735054321603827     -0.04747562896300435     -0.8807542468187772      0.09684595581851159      -0.476650987522547       -0.5009492151147416      0.5009492151147416       0.476650987522547        -0.09684595581851159     0.8807542468187772
0.6432850495335621        -0.24541732418295686     -0.06760316984772491     -0.047667547773647165    -0.8843143490036781      0.09735494772815004      -0.4786953299173279      -0.5029739668145         0.5029739668145          0.4786953299173279       -0.09735494772815004     0.8843143490036781
0.6451005018225234        -0.24611680082186063     -0.06777687576174336     -0.0477995110278673      -0.8867622730404217      0.09770493024702165      -0.48010101846996067     -0.5043661848174823      0.5043661848174823       0.48010101846996067      -0.09770493024702165     0.8867622730404217
0.6492686158226034        -0.2476849541126061      -0.06821841714443423     -0.04809605028980407     -0.8924093608177324      0.09833045563269296      -0.48309885795112606     -0.5076409584992988      0.5076409584992988       0.48309885795112606      -0.09833045563269296     0.8924093608177324
0.6543833304243829        -0.24963243580511993     -0.0686955864421602      -0.048460795583832095    -0.89919481327205        0.0993349299484306       -0.4870212946190879      -0.5115084486013922      0.5115084486013922       0.4870212946190879       -0.0993349299484306      0.89919481327205
0.6552177261998304        -0.2499476669313446      -0.0687749268292982      -0.048521302956469524    -0.900305326176463       0.09948534154891622      -0.487655765200673       -0.512134902524706       0.512134902524706        0.487655765200673        -0.09948534154891622     0.900305326176463
0.655325680505965         -0.24998845160272593     -0.06878519190576905     -0.048529131413445586    -0.9004490045765425      0.09950480183436207      -0.4877378531419273      -0.512215953268977       0.512215953268977        0.4877378531419273       -0.09950480183436207     0.9004490045765425
0.656557897277976         -0.2504537409573576      -0.06890224532602589     -0.04861606878739189     -0.9020784930423617      0.09973647078706971      -0.4886650210862054      -0.5131499427432256      0.5131499427432256       0.4886650210862054       -0.09973647078706971     0.9020784930423617
0.6567101125347301        -0.2505112179696732      -0.06891670488932924     -0.04862680812725267     -0.9022797831163458      0.09976508876234758      -0.4887795537803695      -0.5132653180983235      0.5132653180983235       0.4887795537803695       -0.09976508876234758     0.9022797831163458
0.6829891976150013        -0.2604549699165431      -0.0714227929924785      -0.05052306345560927     -0.9372705726329598      0.10454930703321325      -0.508733814678088       -0.5330860649880848      0.5330860649880848       0.508733814678088        -0.10454930703321325     0.9372705726329598
0.723671024770447         -0.2757934285608699      -0.07538879810553709     -0.05347238577613553     -0.9916427945428943      0.11153091970058612      -0.5393100059096707      -0.5638637083338089      0.5638637083338089       0.5393100059096707       -0.11153091970058612     0.9916427945428943
0.7670420809104075        -0.29204478667261313     -0.0795791430122676      -0.05654381439921309     -1.049002259978882       0.11917688671157098      -0.5715274019052761      -0.5966517447851769      0.5966517447851769       0.5715274019052761       -0.11917688671157098     1.049002259978882
0.7692497312703424        -0.2928720046326518      -0.07979243771304088     -0.05670015462028978     -1.051921940885586       0.1195660776450216       -0.5731673146073403      -0.5983207039232672      0.5983207039232672       0.5731673146073403       -0.1195660776450216      1.051921940885586
0.7701786728093272        -0.2932205769751138      -0.07988387662496838     -0.05676513924572447     -1.0531533408080314      0.11972896709242441      -0.5738500810582206      -0.599032226842235       0.599032226842235        0.5738500810582206       -0.11972896709242441     1.0531533408080314
0.7713795783815833        -0.2936696118476652      -0.07999285924873874     -0.05684967765081819     -1.0547165120448203      0.11996193534584129      -0.5747593565523872      -0.599919090838274       0.599919090838274        0.5747593565523872       -0.11996193534584129     1.0547165120448203
0.8058663884560322        -0.3065493924604782      -0.08321974747902093     -0.05927996604106771     -1.099877891522291       0.1263196783196225       -0.6005594066481647      -0.6256381631937484      0.6256381631937484       0.6005594066481647       -0.1263196783196225      1.099877891522291
0.8254634532179859        -0.3138683034947017      -0.08505342062802812     -0.060660972833842405    -1.1255407602088583      0.12993245376994916      -0.6152202364406889      -0.6402529775381183      0.6402529775381183       0.6152202364406889       -0.12993245376994916     1.1255407602088583
0.8330859579082175        -0.31672318105005337     -0.08576025440849781     -0.06120818830518658     -1.1355598785463474      0.13133284565386671      -0.6209983520953599      -0.6458943721048539      0.6458943721048539       0.6209983520953599       -0.13133284565386671     1.1355598785463474
0.8398702646937914        -0.31923957026707633     -0.08639206479596526     -0.0616894667657083      -1.1444132019848827      0.13254507908342342      -0.6260608132090903      -0.6508974678592153      0.6508974678592153       0.6260608132090903       -0.13254507908342342     1.1444132019848827
0.8583976036599776        -0.3261962268496098      -0.08809455065374056     -0.06298986557781565     -1.1686355679717049      0.136149339426735        -0.6400682640492608      -0.6647166433491787      0.6647166433491787       0.6400682640492608       -0.136149339426735       1.1686355679717049
0.8778472604401193        -0.33343616013424565     -0.08984590947203515     -0.06435023176230985     -1.1938109757338373      0.13993366480314612      -0.6547355189016253      -0.6790091216353575      0.6790091216353575       0.6547355189016253       -0.13993366480314612     1.1938109757338373
0.8901239583145808        -0.3380112842017653      -0.09093665225208042     -0.06520748340452451     -1.209662458777871       0.14238267802919105      -0.6640425452653875      -0.688002591541674       0.688002591541674        0.6640425452653875       -0.14238267802919105     1.209662458777871
0.9222074693386215        -0.349989741276038       -0.09382941652626149     -0.06742735286192951     -1.2511771435785795      0.1487818215255729       -0.6882006444210096      -0.7117583206831424      0.7117583206831424       0.6882006444210096       -0.1487818215255729      1.2511771435785795
0.9424485470699788        -0.35758126987636496     -0.09560295632370908     -0.06877169940935851     -1.277058206361292       0.15326687314416826      -0.703440468419037       -0.7268846110864232      0.7268846110864232       0.703440468419037        -0.15326687314416826     1.277058206361292
0.9455281036810121        -0.3587210824345584      -0.09588278630830699     -0.06898304365913958     -1.2810226984305972      0.1538616313076372       -0.7057259805807543      -0.7291583491574797      0.7291583491574797       0.7057259805807543       -0.1538616313076372      1.2810226984305972
0.947715894318663         -0.3595249370551432      -0.09607935108959997     -0.06913981986571636     -1.2838472068419529      0.15425254137862068      -0.7073711003043521      -0.730728647916221       0.730728647916221        0.7073711003043521       -0.15425254137862068     1.2838472068419529
0.9541124021779435        -0.3618751904613883      -0.09665405332424726     -0.06959819107375548     -1.2921053051905413      0.15539545665501245      -0.7121809852450569      -0.7353197766004966      0.7353197766004966       0.7121809852450569       -0.15539545665501245     1.2921053051905413
0.9672076193192258        -0.3667227570093202      -0.09779109358782481     -0.07048681408909455     -1.3087660511384942      0.15812497689878735      -0.7220194896115444      -0.7448715384257368      0.7448715384257368       0.7220194896115444       -0.15812497689878735     1.3087660511384942
0.9704413437058659        -0.36791633048953676     -0.09807264009465202     -0.07070911331160819     -1.3128870345094632      0.1587782874486842       -0.7244511939415503      -0.7472141280165969      0.7472141280165969       0.7244511939415503       -0.1587782874486842      1.3128870345094632
1.0131145940720934        -0.38367772063634337     -0.10166602173317396     -0.07363484445609506     -1.36689288429659        0.16781799824878424      -0.7568967538975453      -0.7778141286478286      0.7778141286478286       0.7568967538975453       -0.16781799824878424     1.36689288429659
1.0306950797881973        -0.3902625981011051      -0.10313423175845178     -0.07483252507978222     -1.3892579917966952      0.17179240060772555      -0.770452601245984       -0.7905977911584369      0.7905977911584369       0.770452601245984        -0.17179240060772555     1.3892579917966952
1.059051088723342         -0.400725103482571       -0.10544989032966354     -0.07668338706012835     -1.4245334261946465      0.17836698773563756      -0.7918340842166648      -0.8110663297136192      0.8110663297136192       0.7918340842166648       -0.17836698773563756     1.4245334261946465
1.0593805599364472        -0.4008469741367433      -0.10547715037578818     -0.07670502426874415     -1.4249454964758286      0.17844240007114515      -0.7920825942210987      -0.8113053023258747      0.8113053023258747       0.7920825942210987       -0.17844240007114515     1.4249454964758286
1.0594388027925208        -0.4008685180370546      -0.10548196931862704     -0.07670884922454337     -1.4250183409281643      0.17845573122005418      -0.7921265250164016      -0.8113475471318168      0.8113475471318168       0.7921265250164016       -0.17845573122005418     1.4250183409281643
1.0939700535306525        -0.4135691615007148      -0.10839521390827628     -0.07905451103380985     -1.4685420088614987      0.185734637141361        -0.8181707254118404      -0.8361059205910188      0.8361059205910188       0.8181707254118404       -0.185734637141361       1.4685420088614987
1.1156195163806661        -0.4214549577085489      -0.11011258719262909     -0.08048663967765057     -1.4951942357055883      0.19062559512860794      -0.8345187125498131      -0.8513011182843828      0.8513011182843828       0.8345187125498131       -0.19062559512860794     1.4951942357055883
1.1417893302546642        -0.4310591410758855      -0.11225951311246171     -0.08221323673927791     -1.5277497684462689      0.19648679585727408      -0.8541926897714978      -0.8700438745320448      0.8700438745320448       0.8541926897714978       -0.19648679585727408     1.5277497684462689
1.1579713103979095        -0.4370283222839313      -0.11351082354433212     -0.08326397038616037     -1.5476449967455015      0.2004682923902246       -0.866580055479508       -0.8815332336562178      0.8815332336562178       0.866580055479508        -0.2004682923902246      1.5476449967455015
1.1804815188536435        -0.44533184954782123     -0.11525147941060418     -0.0847256106312605      -1.575320579852498       0.2060068183387878       -0.8838117033888722      -0.8975156948024134      0.8975156948024134       0.8838117033888722       -0.2060068183387878      1.575320579852498
1.2181244386892391        -0.45894767874314335     -0.11803341340050208     -0.08711380126386786     -1.6204508027432654      0.21533991222930876      -0.912250322340252       -0.9235403926323218      0.9235403926323218       0.912250322340252        -0.21533991222930876     1.6204508027432654
1.2421012266167386        -0.46773878568462046     -0.11990633801634915     -0.08865015049503222     -1.6497971873984183      0.22115795534006438      -0.9303591593003226      -0.9405959834381596      0.9405959834381596       0.9303591593003226       -0.22115795534006438     1.6497971873984183
1.2650735685371284        -0.476199689052474       -0.12162927481950087     -0.0900839578871003      -1.677623034111853       0.22717572209804407      -0.9478473851948468      -0.9569513710150497      0.9569513710150497       0.9478473851948468       -0.22717572209804407     1.677623034111853
1.2748878918186581        -0.479818686327276       -0.12234792398478674     -0.0907033887052116      -1.6894946994297597      0.22978004587934525      -0.9554071555210384      -0.9638675897880662      0.9638675897880662       0.9554071555210384       -0.22978004587934525     1.6894946994297597
1.2764593631563348        -0.4803981608692634      -0.12246299422780771     -0.09080257208733714     -1.6913955927712994      0.23019705070575508      -0.9566176274044526      -0.9649750160726018      0.9649750160726018       0.9566176274044526       -0.23019705070575508     1.6913955927712994
1.2883478710270402        -0.4847021359388509      -0.12328248281544242     -0.09153268788024856     -1.7053824718450243      0.2334260719103801       -0.965687574952369       -0.9731209688030351      0.9731209688030351       0.965687574952369        -0.2334260719103801      1.7053824718450243
1.3177028164727187        -0.49532945391191796     -0.12530595313190235     -0.09333548008117354     -1.739918687544238       0.24139912810343445      -0.9880829687528232      -0.9932348468948491      0.9932348468948491       0.9880829687528232       -0.24139912810343445     1.739918687544238
1.3369780886319456        -0.5022552194329534      -0.12660402935136056     -0.09454722679182495     -1.7625114340872894      0.2465094436445251       -1.002887257979125       -1.006133619752689       1.006133619752689        1.002887257979125        -0.2465094436445251      1.7625114340872894
1.342413122978813         -0.5042333364489073      -0.12701663969595464     -0.0948890141868302      -1.7690726487330006      0.2478606970626296       -1.0069728105572717      -1.009960535238358       1.009960535238358        1.0069728105572717       -0.2478606970626296      1.7690726487330006
1.3441272458448488        -0.5048624080934935      -0.1271383301195831      -0.09499498473308225     -1.7711197454780663      0.24832988689590824      -1.0082897647605669      -1.0111598676134073      1.0111598676134073       1.0082897647605669       -0.24832988689590824     1.7711197454780663
1.3470699485004718        -0.5059423603161612      -0.12734724089247512     -0.09517690856949602     -1.7746340775877332      0.24913536367691277      -1.0105506322328814      -1.013218809031764       1.013218809031764        1.0105506322328814       -0.24913536367691277     1.7746340775877332
1.3497398012163355        -0.5069321699468317      -0.12753593119737408     -0.09533085652568435     -1.7777955595885242      0.24993312019880345      -1.0125799724042788      -1.0151487073830485      1.0151487073830485       1.0125799724042788       -0.24993312019880345     1.7777955595885242
1.3579143862823757        -0.5098930913100327      -0.12802840756307265     -0.09582914024916753     -1.7871879663059547      0.252384398934177        -1.0190175209275176      -1.0205548443126136      1.0205548443126136       1.0190175209275176       -0.252384398934177       1.7871879663059547
1.359869134832789         -0.5106158612700242      -0.12814755044860102     -0.09594652337925413     -1.7894604674028693      0.25300297767722857      -1.0205751647112622      -1.0218882803688352      1.0218882803688352       1.0205751647112622       -0.25300297767722857     1.7894604674028693
1.3730161749521141        -0.5154769906766907      -0.1289488690098258      -0.09673600636429311     -1.8047446138400325      0.2571633488667313       -1.0310513997810764      -1.0308565629256867      1.0308565629256867       1.0310513997810764       -0.2571633488667313      1.8047446138400325
1.4072506501176043        -0.527930885857852       -0.13135600361177321     -0.098746974085644       -1.8449176788936001      0.26680586453780786      -1.0567816572229602      -1.0549418862084476      1.0549418862084476       1.0567816572229602       -0.26680586453780786     1.8449176788936001
1.411460064331568         -0.5294466747252738      -0.13163392537799293     -0.09900769692541675     -1.8498259132861943      0.26796078561490166      -1.0600223610182362      -1.0577643378828598      1.0577643378828598       1.0600223610182362       -0.26796078561490166     1.8498259132861943
1.4116230552302946        -0.5295053669273767      -0.13164468666594162     -0.09901779226120767     -1.8500159628974098      0.2680055048120975       -1.0601478429017592      -1.0578736248077478      1.0578736248077478       1.0601478429017592       -0.2680055048120975      1.8500159628974098
1.4117699744211492        -0.5295579318117436      -0.1316548722174155      -0.0990263862900927      -1.850186025436105       0.26804570181086956      -1.0602567921316117      -1.0579749351153633      1.0579749351153633       1.0602567921316117       -0.26804570181086956     1.850186025436105
1.4153965776352628        -0.5308554612732496      -0.1319062958299321      -0.09923852421840093     -1.8543839069099002      0.2690379381830989       -1.0629461319303068      -1.060475713162692       1.060475713162692        1.0629461319303068       -0.2690379381830989      1.8543839069099002
1.4551078571939196        -0.5449985369962079      -0.1342133278056836      -0.10161031782480828     -1.8990783287087003      0.2809158192761317       -1.0937983618745983      -1.0861957861102338      1.0861957861102338       1.0937983618745983       -0.2809158192761317      1.8990783287087003
1.457874546314087         -0.5459937644338065      -0.13440639555753983     -0.10176399790409779     -1.9022627071566243      0.2817123505786023       -1.0958243338113849      -1.0881507239238417      1.0881507239238417       1.0958243338113849       -0.2817123505786023      1.9022627071566243
1.466723556358769         -0.5492193223406534      -0.13494410044717414     -0.10226169407049845     -1.9123177223048236      0.28455956705779045      -1.1026531196217784      -1.0942241697408357      1.0942241697408357       1.1026531196217784       -0.28455956705779045     1.9123177223048236
1.5131281334780826        -0.5660879781451947      -0.13782813607289932     -0.10488819720842155     -1.965213153342774       0.29913875923800554      -1.138244336905378       -1.1261075756754018      1.1261075756754018       1.138244336905378        -0.29913875923800554     1.965213153342774
1.5181884408845279        -0.5679274644459753      -0.13814263321398484     -0.10517461105177392     -1.970981272741001       0.3007285850429006       -1.1421254734570923      -1.12958438432681        1.12958438432681         1.1421254734570923       -0.3007285850429006      1.970981272741001