% Model:              Prism_potential.mph
% Version:            COMSOL 6.2.0.339
% Date:               May 6 2024, 20:11
% Dimension:          1
% Nodes:              797
% Expressions:        11
% Description:        Line graph
% Arc length (m)          Magnetic scalar potential Magnetic scalar potential Magnetic scalar potential Magnetic scalar potential Magnetic scalar potential Magnetic scalar potential Magnetic scalar potential Magnetic scalar potential Magnetic scalar potential Magnetic scalar potential Magnetic scalar potential
0                         -2.1477070312688288E-6   1.721308767979994E-5     1.4805998816487111E-5    1.0656784424210733E-4    1.1515867236798462E-4    3.289318163571826E-6     -1.1880146289583333E-5   1.1880146289583333E-5    -3.289318163571826E-6    -1.1515867236798462E-4   -1.0656784424210733E-4
0.0043963950360821616     0.0020025858181948004    7.732431833144225E-4     1.4692824926253508E-5    0.0063836724860371645    -0.0016266707867412166   0.0017442133861509212    0.006266129886627362     -0.006266129886627362    -0.0017442133861509212   0.0016266707867412166    -0.0063836724860371645
0.005252715936308634      0.0023929753357575397    9.200966670186462E-4     1.4672165635252663E-5    0.00760492933511131      -0.0019669720079180256   0.002084349332999727     0.007487552010029513     -0.007487552010029513    -0.002084349332999727    0.0019669720079180256    -0.00760492933511131
0.009232850067966328      0.00420936311925354      0.0016030305045387685    1.4639346014414319E-5    0.01328637513618032      -0.0035510773408330147   0.0036681921089480097    0.01316926036806524      -0.01316926036806524     -0.0036681921089480097   0.0035510773408330147    -0.01328637513618032
0.014518741079920195      0.006619227021896821     0.002507548323872124     1.405017895633665E-5     0.020817299731234643     -0.005659608356351827    0.005772009788002195     0.020704898299584183     -0.020704898299584183    -0.005772009788002195    0.005659608356351827     -0.020817299731234643
0.023628451316117773      0.010771976996826431     0.004066401650124242     1.3479721755212668E-5    0.03379707783104573      -0.0092908301562592      0.009398667930300565     0.03368924005700427      -0.03368924005700427     -0.009398667930300565    0.0092908301562592       -0.03379707783104573
0.023795618497426993      0.01084820441499549      0.004095035544637441     1.3467451988809443E-5    0.03403538527185782      -0.009357432388123334    0.00946517200403347      0.033927645655947594     -0.033927645655947594    -0.00946517200403347     0.009357432388123334     -0.03403538527185782
0.04786779193824333       0.021824997926377876     0.008218333369063633     1.1700598335981008E-5    0.06835179835328986      -0.018948193352220886    0.019041798138908363     0.0682581935666023       -0.0682581935666023      -0.019041798138908363    0.018948193352220886     -0.06835179835328986
0.1345695165321317        0.06136324299575184      0.023074673902180737     6.0858355564243636E-6    0.1919748510402709       -0.05347812094273589     0.053526807627186763     0.19192616435581994      -0.19192616435581994     -0.053526807627186763    0.05347812094273589      -0.1919748510402709
0.14752424974854522       0.0672435664880207       0.025302312294601788     5.302722250395393E-6     0.21041528074884763      -0.058558985203234576    0.058601406981237204     0.2103728589708449       -0.2103728589708449      -0.058601406981237204    0.058558985203234576     -0.21041528074884763
0.24411606394051824       0.11120039294735048      0.041762200139218206     1.4830857455507712E-5    0.3477467097421769       -0.09705486204722451     0.09717350890686789      0.34762806288253345      -0.34762806288253345     -0.09717350890686789     0.09705486204722451      -0.3477467097421769
0.2563128291229089        0.11674938852370065      0.0438282449562611       1.1093154794311697E-5    0.36502788453536106      -0.10196966955944095     0.10205841479779476      0.3649391392970073       -0.3649391392970073      -0.10205841479779476     0.10196966955944095      -0.36502788453536106
0.26084949724515616       0.11881337442203245      0.04459672409974293      9.702891371189096E-6     0.37145573270877763      -0.10379776497935155     0.10387538811032038      0.37137810957780876      -0.37137810957780876     -0.10387538811032038     0.10379776497935155      -0.37145573270877763
0.2926726378476252        0.1332187299655322       0.050001000140274005     9.687006160674703E-6     0.4164792083765283       -0.11639571148559981     0.11647320753488452      0.41640171232724354      -0.41640171232724354     -0.11647320753488452     0.11639571148559981      -0.4164792083765283
0.3388537930272869        0.15417558563041264      0.05778237783655599      1.6004566251425108E-5    0.48176232303549815      -0.13494001948615178     0.1350680560161625       0.4816342865054874       -0.4816342865054874      -0.1350680560161625      0.13494001948615178      -0.48176232303549815
0.35773182341945836       0.16267648809224486      0.060947105341184776     6.949668107521364E-6     0.5082220908804733       -0.1424838614885055      0.142539458833365        0.5081664935356137       -0.5081664935356137      -0.142539458833365       0.1424838614885055       -0.5082220908804733
0.3662726197730787        0.1665224654129831       0.062378890997327394     2.853052123583371E-6     0.5201930160264419       -0.14589684562548988     0.14591967004247788      0.5201701916094538       -0.5201701916094538      -0.14591967004247788     0.14589684562548988      -0.5201930160264419
0.38712947795818065       0.1759782408399003       0.06585156261511368      -4.107681174946791E-6    0.549494738800441        -0.15441822455915954     0.1543853631097593       0.5495276002498413       -0.5495276002498413      -0.1543853631097593      0.15441822455915954      -0.549494738800441
0.4047783268211665        0.18395602742522246      0.0687860179634735       5.990130301018011E-6     0.5742940692620686       -0.16153004043882052     0.161577961481228        0.5742461482196611       -0.5742461482196611      -0.161577961481228       0.16153004043882052      -0.5742940692620686
0.4225066355529215        0.19196973215342528      0.07173368501978665      1.6133404842645725E-5    0.5992050529855801       -0.1686738756281202      0.1688029428668607       0.5990759857468397       -0.5990759857468397      -0.1688029428668607      0.1686738756281202       -0.5992050529855801
0.4578078442257445        0.20780822265938703      0.07762479849597281      9.937183793080158E-6     0.6485305895418638       -0.18270230109568347     0.18278179856602744      0.64845109207152         -0.64845109207152        -0.18278179856602744     0.18270230109568347      -0.6485305895418638
0.4919318871442392        0.22321914440780327      0.08321833316919314      1.904259992881695E-5     0.6961694587229001       -0.19670711890831202     0.19685945970774188      0.6960171179234704       -0.6960171179234704      -0.19685945970774188     0.19670711890831202      -0.6961694587229001
0.5134094586712051        0.23291459485988145      0.08670968926352213      8.334441288004868E-6     0.7259915952754802       -0.20566678416404455     0.20573345969434792      0.725924919745177        -0.725924919745177       -0.20573345969434792     0.20566678416404455      -0.7259915952754802
0.5468439379024892        0.2479461819799979       0.09206382884897732      2.0372776319305987E-5    0.7721653416122041       -0.21961938630778677     0.21978236851834054      0.7720023594016503       -0.7720023594016503      -0.21978236851834054     0.21961938630778677      -0.7721653416122041
0.5898123206041906        0.26707671508235836      0.09912556779726929      8.580896727451763E-6     0.8315644571434334       -0.23674240318599923     0.2368110503598181       0.8314958099696145       -0.8314958099696145      -0.2368110503598181      0.23674240318599923      -0.8315644571434334
0.5991207766786921        0.27125854953124173      0.10058334510994855      5.301681091838319E-6     0.8442883411166954       -0.24074585700827061     0.24078827045700457      0.8442459276679615       -0.8442459276679615      -0.24078827045700457     0.24074585700827061      -0.8442883411166954
0.6238643168426444        0.28236681844882777      0.10443366904172967      3.387858315762526E-6     0.8780481954561065       -0.25141907833920374     0.25144618120572915      0.8780210925895812       -0.8780210925895812      -0.25144618120572915     0.25141907833920374      -0.8780481954561065
0.6413193564829862        0.29016399233681156      0.10727432131236792      -6.595410527984193E-6    0.9021245669686139       -0.2585314023786316      0.25847863909440705      0.9021773302528386       -0.9021773302528386      -0.25847863909440705     0.2585314023786316       -0.9021245669686139
0.6963561232608205        0.3144749412149301       0.11595894341289818      3.0258979374042823E-5    0.9769477485860498       -0.28095201627366967     0.28119408810866126      0.9767056767510585       -0.9767056767510585      -0.28119408810866126     0.28095201627366967      -0.9769477485860498
0.7009565931796186        0.31649397198669504      0.11666425974230418      2.8715143623974596E-5    0.9830955837747973       -0.28288030417198184     0.28311002532097285      0.9828658626258066       -0.9828658626258066      -0.28311002532097285     0.28288030417198184      -0.9830955837747973
0.7274003993066538        0.3280994947344714       0.1207184647696718       1.98410733686827E-5      1.0184337480714318       -0.29396423086645296     0.2941229594534017       1.0182750194844834       -1.0182750194844834      -0.2941229594534017      0.29396423086645296      -1.0184337480714318
0.7471508207463354        0.33693348810240004      0.12372548855479232      -4.886972746180162E-6    1.0450238939781913       -0.30271005843140814     0.30267096264943794      1.0450629897601615       -1.0450629897601615      -0.30267096264943794     0.30271005843140814      -1.0450238939781913
0.7836426566246465        0.3529948770817528       0.12910678122977934      -4.2996195955806045E-5   1.0931381130690192       -0.3188413952579912      0.31849742569034395      1.0934820826366667       -1.0934820826366667      -0.31849742569034395     0.3188413952579912       -1.0931381130690192
0.786169921104536         0.35411008944754996      0.12948820880820708      -4.622411780222872E-5    1.096499908848511        -0.319940448941688       0.3195706559992693       1.09686970179093         -1.09686970179093        -0.3195706559992693      0.319940448941688        -1.096499908848511
0.7861724108175587        0.35411118808948977      0.12948858456832912      -4.622729776187376E-5    1.096503220692918        -0.31994153166504        0.31957171328294426      1.096873039075014        -1.096873039075014       -0.31957171328294426     0.31994153166504         -1.096503220692918
0.7870092623184138        0.3544795184116013       0.12961601329612327      -4.646857758890901E-5    1.0976212024012155       -0.32029687124518874     0.3199251226244767       1.097992951021928        -1.097992951021928       -0.3199251226244767      0.32029687124518874      -1.0976212024012155
0.8203928464307969        0.3691604104245704       0.13465000067375904      -7.538300916247486E-5    1.1419692908337664       -0.3346723508645138      0.3340692867912131       1.1425723549070672       -1.1425723549070672      -0.3340692867912131      0.3346723508645138       -1.1419692908337664
0.8558314426562355        0.38473294460006646      0.14000651139775186      4.904301426172236E-6     1.1895050405990917       -0.3494267378011731      0.34946597221258174      1.1894658061876837       -1.1894658061876837      -0.34946597221258174     0.3494267378011731       -1.1895050405990917
0.8640184195549752        0.38824649807276645      0.14124715328641696      8.601853069049815E-6     1.2002688634170584       -0.35271712887400625     0.3527859436985579       1.2002000485925075       -1.2002000485925075      -0.3527859436985579      0.35271712887400625      -1.2002688634170584
0.871206143569359         0.3913312084590185       0.1423363699297156       1.1848103921674664E-5    1.2097189191228692       -0.3556059147132038      0.3557006995445765       1.209624134291497        -1.209624134291497       -0.3557006995445765      0.3556059147132038       -1.2097189191228692
0.8893877160199987        0.39934432441738665      0.1449345598533497       -9.873799164787872E-6    1.2334528331981618       -0.3639244644713838      0.36384547407806483      1.2335318235914814       -1.2335318235914814      -0.36384547407806483     0.3639244644713838       -1.2334528331981618
0.8947204023541866        0.40165329657495147      0.1457044148782155       -8.24155491371397E-6     1.2403868715648934       -0.36622631473491163     0.3661603822956012       1.2404528040042044       -1.2404528040042044      -0.3661603822956012      0.36622631473491163      -1.2403868715648934
0.9336824682439565        0.4185232791133836       0.15132918639573276      3.6840683225168884E-6    1.2910488536872542       -0.3830442627662792      0.38307373531285854      1.2910193811406754       -1.2910193811406754      -0.38307373531285854     0.3830442627662792       -1.2910488536872542
0.9416606033384257        0.4219443390022935       0.152458518498267        7.161177099561092E-6     1.3012928782077848       -0.38648447780138817     0.3865417672181839       1.3012355887909897       -1.3012355887909897      -0.3865417672181839      0.38648447780138817      -1.3012928782077848
0.9457615837600281        0.42372510346843933      0.15302363668581165      6.136114992658791E-6     1.306545661454283        -0.38835475241947337     0.3884038413394139       1.3064965725343431       -1.3064965725343431      -0.3884038413394139      0.38835475241947337      -1.306545661454283
0.9917661697215838        0.4437016270159676       0.15936310324370861      -5.362978630053155E-6    1.3654711118485394       -0.4093353962153298      0.40929249238628884      1.3655140156775811       -1.3655140156775811      -0.40929249238628884     0.4093353962153298       -1.3654711118485394
1.0234001936409451        0.457225524457157        0.16363132210698528      1.9414454035844282E-5    1.4054226730514117       -0.4234794247772149      0.423634740409501        1.4052673574191261       -1.4052673574191261      -0.423634740409501       0.4234794247772149       -1.4054226730514117
1.0442074021712617        0.4661159103034702       0.16639752774025338      1.775097835455652E-5     1.4314954077411173       -0.43296823347276225     0.4331102412995981       1.431353399914282        -1.431353399914282       -0.4331102412995981      0.43296823347276225      -1.4314954077411173
1.0622794267488493        0.4738376222901941       0.1688001054872032       1.630617265884984E-5     1.4541407857326314       -0.4412097034281435      0.44134015280941363      1.454010336351362        -1.454010336351362       -0.44134015280941363     0.4412097034281435       -1.4541407857326314
1.0817501687140163        0.482294218892151        0.17126951871440718      -2.515184303749412E-6    1.478386933190307        -0.45078994237829595     0.4507698209038653       1.4784070546647385       -1.4784070546647385      -0.4507698209038653      0.45078994237829595      -1.478386933190307
1.0873512998927573        0.4846730347034632       0.17197826421765358      -6.15180063257993E-6     1.4852562548573551       -0.4534358839564963      0.45338666955143503      1.4853054692624175       -1.4853054692624175      -0.45338666955143503     0.4534358839564963       -1.4852562548573551
1.1078637180997863        0.49342936516183106      0.17460089397568454      -1.1259319292577466E-5   1.510616374973544        -0.4631010856737793      0.463011011119438        1.510706449527886        -1.510706449527886       -0.463011011119438       0.4631010856737793       -1.510616374973544
1.1380993774283261        0.5063199122738833       0.17830927590821521      7.501342501948496E-6     1.5475976576424184       -0.47768199145311363     0.47774200219312857      1.5475376469024043       -1.5475376469024043      -0.47774200219312857     0.47768199145311363      -1.5475976576424184
1.1693914325256076        0.5196150607136245       0.18226908237905565      2.2807833765047902E-5    1.586128599899475        -0.49233164295502235     0.4925141056251421       1.5859461372293557       -1.5859461372293557      -0.4925141056251421      0.49233164295502235      -1.586128599899475
1.1918387962208798        0.5291930165366001       0.18478282472051272      7.130515176540257E-7     1.612737359440807        -0.5040347067055916      0.5040404111177321       1.612731655028667        -1.612731655028667       -0.5040404111177321      0.5040347067055916       -1.612737359440807
1.236186744325619         0.547882286602428        0.19001239245596013      -4.799563628755206E-6    1.6657825523182197       -0.5257465940914907      0.52570819758246         1.6658209488272506       -1.6658209488272506      -0.52570819758246        0.5257465940914907       -1.6657825523182197
1.2494438782392088        0.5534691551408498       0.19157569093406057      -6.447474757303052E-6    1.6816395931848505       -0.5322370273785472      0.5321854475804881       1.6816911729829098       -1.6816911729829098      -0.5321854475804881      0.5322370273785472       -1.6816395931848505
1.262126770307885         0.5588093024991061       0.19306789301537303      1.6592303872396653E-5    1.696888653259819        -0.5383485567366036      0.5384812951675821       1.6967559148288411       -1.6967559148288411      -0.5384812951675821      0.5383485567366036       -1.696888653259819
1.268303230269308         0.5613789253497133       0.1937326774772151       2.5091466490358854E-5    1.704056248997032        -0.54145945240182        0.5416601841337424       1.70385551726511         -1.70385551726511        -0.5416601841337424      0.54145945240182         -1.704056248997032
1.2862061347785958        0.5688515512568253       0.19567605301108956      2.2802591897612022E-5    1.724822471914508        -0.5505837331127916      0.550766153847972        1.7246400511793283       -1.7246400511793283      -0.550766153847972       0.5505837331127916       -1.724822471914508
1.3160212390545993        0.5812706749525886       0.1988939688055184       4.0940092293853276E-5    1.7593870166909062       -0.5656956831194467      0.566023203857797        1.7590594959525565       -1.7590594959525565      -0.566023203857797       0.5656956831194467       -1.7593870166909062
1.3258252147247767        0.5853530211929534       0.19995064691407333      1.9198527338297163E-5    1.7706347772374786       -0.5707773075343342      0.57093089575304         1.7704811890187733       -1.7704811890187733      -0.57093089575304        0.5707773075343342       -1.7706347772374786
1.345235638970117         0.5935879905279444       0.2019256461681373       -2.4337747691110585E-6   1.792943184461223        -0.5814087776505538      0.5813893074524003       1.7929626546593767       -1.7929626546593767      -0.5813893074524003      0.5814087776505538       -1.792943184461223
1.3510883366930486        0.5960645814051077       0.202516263089813        -4.5211819125012636E-6   1.799659867352003        -0.5845984582684266      0.584562288813126        1.799696036807304        -1.799696036807304       -0.584562288813126       0.5845984582684266       -1.799659867352003
1.354862108090162         0.5976614668512792       0.20289708802750595      -5.867124885259445E-6    1.8039907292855337       -0.5866551381195818      0.5866082011204992       1.804037666284617        -1.804037666284617       -0.5866082011204992      0.5866551381195818       -1.8039907292855337
1.3966147200920593        0.6149207982468932       0.20693717640411535      -8.698329663036036E-6    1.850618332387479        -0.6090648606000928      0.608995273962788        1.8506879190247845       -1.8506879190247845      -0.608995273962788       0.6090648606000928       -1.850618332387479
1.4142135623730951        0.6221956545144184       0.2086400849104902       -9.891690364567424E-6    1.8702719969988477       -0.6185106210588249      0.6184314875359078       1.8703511305217653       -1.8703511305217653      -0.6184314875359078      0.6185106210588249       -1.8702719969988477
1.4299796126213555        0.6177664301750836       0.21012862387563438      7.21221716216264E-6      1.8659475808457175       -0.6051181398546157      0.6051758375919125       1.8658898831084214       -1.8658898831084214      -0.6051758375919125      0.6051181398546157       -1.8659475808457175
1.4308289779263084        0.6175278143250486       0.21020881601838134      8.133656926946663E-6     1.8657146113329475       -0.6043966459672456      0.6044617152226607       1.865649542077533        -1.865649542077533       -0.6044617152226607      0.6043966459672456       -1.8657146113329475
1.4436162156947325        0.6139200809915347       0.21140771487310442      3.810665833920519E-5     1.862215733235738        -0.5934645907303997      0.5937694439971128       1.8619108799690256       -1.8619108799690256      -0.5937694439971128      0.5934645907303997       -1.862215733235738
1.4555256735496362        0.6104853939860897       0.212310105805103        8.192040279312641E-5     1.8582287869986593       -0.583712788945698       0.5843681521680426       1.8575734237763153       -1.8575734237763153      -0.5843681521680426      0.583712788945698        -1.8582287869986593
1.467645396455267         0.6069833947691097       0.2132256267585048       8.285170419267411E-5     1.853975076630503        -0.5739585024459344      0.5746213160794754       1.8533122629969625       -1.8533122629969625      -0.5746213160794754      0.5739585024459344       -1.853975076630503
1.478412881153502         0.6037656556303109       0.21411690615981976      8.636824531143753E-5     1.8502275027213253       -0.5648351197999169      0.5655260657624079       1.8495365567588347       -1.8495365567588347      -0.5655260657624079      0.5648351197999169       -1.8502275027213253
1.5252923031256858        0.5898257372613374       0.21805395181673176      4.1996627304472563E-5    1.8339813164820868       -0.5253216325632617      0.5256576055816972       1.8336453434636517       -1.8336453434636517      -0.5256576055816972      0.5253216325632617       -1.8339813164820868
1.5418581401888447        0.5851736942444062       0.21919960251349052      4.179408201511535E-5     1.8281133723573433       -0.5125814046202803      0.5129157572764008       1.8277790197012231       -1.8277790197012231      -0.5129157572764008      0.5125814046202803       -1.8281133723573433
1.54685677745597          0.5836975481128446       0.2195626142622476       3.867477765173179E-5     1.8262376381230379       -0.5085525543283393      0.5088619525495528       1.8259282399018248       -1.8259282399018248      -0.5088619525495528      0.5085525543283393       -1.8262376381230379
1.6002010430162361        0.567944468415372        0.22343658912626752      5.386304927782533E-6     1.806220249429257        -0.4655576242322307      0.46560071467165254      1.8061771589898352       -1.8061771589898352      -0.46560071467165254     0.4655576242322307       -1.806220249429257
1.6132711935373545        0.564082186667704        0.22428499893933254      3.201470796041655E-5     1.801147428985247        -0.4551813176855689      0.45543743534925185      1.800891311321564        -1.800891311321564       -0.45543743534925185     0.4551813176855689       -1.801147428985247
1.6191635063212446        0.5623488582311281       0.2246282681178312       3.0370804250069098E-5    1.7987040040327493       -0.4506914288917623      0.4509343953257624       1.7984610375987495       -1.7984610375987495      -0.4509343953257624      0.4506914288917623       -1.7987040040327493
1.6866387770890612        0.5424998091603972       0.22855918312776966      1.154579409867325E-5     1.7707233508804971       -0.39927588576109085     0.3993682521138797       1.770630984527708        -1.770630984527708       -0.3993682521138797      0.39927588576109085      -1.7707233508804971
1.6886444779875935        0.5419304276337729       0.22866762150059122      1.572019863206941E-5     1.769926600563847        -0.39779510997124384     0.3979208715603          1.7698008389747906       -1.7698008389747906      -0.3979208715603         0.39779510997124384      -1.769926600563847
1.6905909048524375        0.541362607845433        0.2287531295827354       2.043098553056488E-5     1.7690663283811936       -0.3963841030005376      0.39654755088478166      1.7689028804969493       -1.7689028804969493      -0.39654755088478166     0.3963841030005376       -1.7690663283811936
1.6921439535312135        0.5409119094901366       0.22882292411461716      2.2712044116674007E-5    1.7683834395005906       -0.39526419845995503     0.3954458948128879       1.768201743147657        -1.768201743147657       -0.3954458948128879      0.39526419845995503      -1.7683834395005906
1.7065827288651647        0.5367047836650278       0.22945869431543586      2.2026581556998476E-5    1.7618737566025906       -0.3849453780575202      0.3851215907099757       1.7616975439501346       -1.7616975439501346      -0.3851215907099757      0.3849453780575202       -1.7618737566025906
1.7413774567766622        0.5265581886653292       0.23105236945439434      1.7739999396557197E-5    1.7463444456914274       -0.3598883089698893      0.3600302289650613       1.7462025256962552       -1.7462025256962552      -0.3600302289650613      0.3598883089698893       -1.7463444456914274
1.7683494150184407        0.5186881131210729       0.23228418611732932      1.4510099282625085E-5    1.7342868249912644       -0.3404656274930275      0.3405817082872881       1.7341707441970036       -1.7341707441970036      -0.3405817082872881      0.3404656274930275       -1.7342868249912644
1.7703205654185472        0.5181129564187353       0.2323742090917918       1.4274053429195251E-5    1.733405636326563        -0.33904618934837866     0.3391603817758118       1.7332914438991296       -1.7332914438991296      -0.3391603817758118      0.33904618934837866      -1.733405636326563
1.7786689489853624        0.5155597421092903       0.23259412331874418      8.323899824560588E-6     1.728935149774112        -0.33330381866305003     0.33337040986164607      1.7288685585755152       -1.7288685585755152      -0.33337040986164607     0.33330381866305003      -1.728935149774112
1.779064818940729         0.515445025673767        0.23260746599946366      8.181766393058941E-6     1.7287451764114976       -0.3330349262835711      0.33310038041471524      1.7286797222803534       -1.7286797222803534      -0.33310038041471524     0.3330349262835711       -1.7287451764114976
1.7831381230287233        0.514264650857637        0.23274475551886922      6.719284384159967E-6     1.7267904454094185       -0.3302681580211298      0.33032191229620267      1.7267366911343454       -1.7267366911343454      -0.33032191229620267     0.3302681580211298       -1.7267904454094185
1.8376501382932786        0.49844653025464725      0.23456582742132254      -1.2428569834907E-5      1.700540828493922        -0.2932452925246668      0.293145863965987        1.7006402570526018       -1.7006402570526018      -0.293145863965987       0.2932452925246668       -1.700540828493922
1.8469464447997659        0.49574686297751636      0.2346397680421034       -2.829786672313005E-5    1.6952998386144502       -0.2876876132956152      0.28746123036182963      1.6955262215482354       -1.6955262215482354      -0.28746123036182963     0.2876876132956152       -1.6952998386144502
1.8645069197709496        0.4906472635164294       0.23477943990206956      -5.8274545162185446E-5   1.6853997485584182       -0.2771893055072991      0.276723109146001        1.6858659449197164       -1.6858659449197164      -0.276723109146001       0.2771893055072991       -1.6853997485584182
1.8759981754763173        0.48731228994765763      0.23508381834231729      -4.185082509038291E-5    1.6797086316219052       -0.26954052816872515     0.2692057215680015       1.6800434382226284       -1.6800434382226284      -0.2692057215680015      0.26954052816872515      -1.6797086316219052
1.8850452900124293        0.4846866510596908       0.2353234567840898       -2.8920360360642897E-5   1.6752279910302081       -0.26351861320855485     0.2632872503256692       1.6754593539130935       -1.6754593539130935      -0.2632872503256692      0.26351861320855485      -1.6752279910302081
1.9005953572958132        0.48031460917150076      0.23567711953534398      -3.767754715049501E-5    1.6675098667604313       -0.2537485699255717      0.25344714954836717      1.6678112871376354       -1.6678112871376354      -0.25344714954836717     0.2537485699255717       -1.6675098667604313
1.9231322466283949        0.4741691396715311       0.2361299666913142       9.31024155474778E-6      1.6567654203832236       -0.23991113830290084     0.23998562023533831      1.656690938450786        -1.656690938450786       -0.23998562023533831     0.23991113830290084      -1.6567654203832236
1.9358353713098926        0.4705997143588537       0.23640094492977776      3.773052161956051E-5     1.6505531855935185       -0.23184567184189603     0.232147516014852        1.650251341420562        -1.650251341420562       -0.232147516014852       0.23184567184189603      -1.6505531855935185
1.9506265054429195        0.4665243952598998       0.23646919778970943      5.769694584262166E-5     1.6426871716722982       -0.223410409367301       0.22387198493404148      1.6422255961055572       -1.6422255961055572      -0.22387198493404148     0.223410409367301        -1.6426871716722982