% Model:              Prism_potential.mph
% Version:            COMSOL 6.2.0.339
% Date:               May 6 2024, 20:11
% Dimension:          1
% Nodes:              809
% Expressions:        11
% Description:        Line graph
% Arc length (m)          Magnetic scalar potential Magnetic scalar potential Magnetic scalar potential Magnetic scalar potential Magnetic scalar potential Magnetic scalar potential Magnetic scalar potential Magnetic scalar potential Magnetic scalar potential Magnetic scalar potential Magnetic scalar potential
0                         -2.147707031990814E-6    1.721308767908315E-5     1.4805998816818511E-5    1.0656784423983788E-4    1.1515867236860369E-4    3.2893181656047177E-6    -1.1880146294504209E-5   1.1880146294504209E-5    -3.2893181656047177E-6   -1.1515867236860369E-4   -1.0656784423983788E-4
0.005068880712045708      -1.927462300815473E-6    8.884811586942665E-4     4.17345874605315E-4      0.004330972049901719     0.0043386818991057756    -9.999149022635982E-4    9.922050530594383E-4     -9.922050530594383E-4    9.999149022635982E-4     -0.0043386818991057756   -0.004330972049901719
0.007579576537103504      -2.0411345509622125E-6   0.0013188902370120578    6.164580269735108E-4     0.006418420549827588     0.006426585088032231     -0.0014949208722444816   0.001486756334039733     -0.001486756334039733    0.0014949208722444816    -0.006426585088032231    -0.006418420549827588
0.011951031240229172      -2.239053028658738E-6    0.0020682895751950696    9.631387145477754E-4     0.010052945477718303     0.010061901689833726     -0.0023567919734518482   0.0023478357613363155    -0.0023478357613363155   0.0023567919734518482    -0.010061901689833726    -0.010052945477718303
0.09328666042812228       4.445991678075651E-6     0.01602563715708535      0.007414454742403408     0.07774362242422528      0.07772583845751348      -0.018410200518286714    0.01842798448499829      -0.01842798448499829     0.018410200518286714     -0.07772583845751348     -0.07774362242422528
0.09969008851239561       6.197456382335889E-6     0.01712542906587598      0.00792677019526163      0.08309576289143854      0.0830709730659097       -0.01965681150381718     0.0196816013293458       -0.0196816013293458      0.01965681150381718      -0.0830709730659097      -0.08309576289143854
0.10568540856953866       7.83729543926367E-6      0.01815512822118466      0.008406434379770665     0.08810679677351457      0.08807544759175803      -0.020823972553593216    0.02085532173534954      -0.02085532173534954     0.020823972553593216     -0.08807544759175803     -0.08810679677351457
0.11054410644500658       1.0355928221892014E-5    0.018988203911361915     0.008792298082151376     0.09215451591913441      0.09211309220624736      -0.02177470754903687     0.021816131261923718     -0.021816131261923718    0.02177470754903687      -0.09211309220624736     -0.09215451591913441
0.11899585010933787       8.963085797019949E-6     0.020433058007653514     0.009459268055521941     0.09915417241664175      0.0991183200734542       -0.02344417562927915     0.023480027972466514     -0.023480027972466514    0.02344417562927915      -0.0991183200734542      -0.09915417241664175
0.12651022266655088       7.724721583705733E-6     0.021717665350416478     0.010052265318978033     0.10537750677032838      0.1053466078839941       -0.024928485332170295    0.02495938421850441      -0.02495938421850441     0.024928485332170295     -0.1053466078839941      -0.10537750677032838
0.1850321551445529        5.713215060959998E-6     0.0317828602678638       0.014690097087247604     0.1541203955827031       0.1540975427224598       -0.03657676602447943     0.03659961888472262      -0.03659961888472262     0.03657676602447943      -0.1540975427224598      -0.1541203955827031
0.22411645860355908       -1.2360326928418687E-6   0.03854461062209912      0.017777653334887823     0.18674197314046231      0.18674691727123405      -0.04452569059213203     0.04452074646136012      -0.04452074646136012     0.04452569059213203      -0.18674691727123405     -0.18674197314046231
0.2526482781554814        2.2435390965349408E-5    0.043439705473301504     0.020041713545841666     0.21053084138520128      0.21044109982134035      -0.050107391454607325    0.050197133018468336     -0.050197133018468336    0.050107391454607325     -0.21044109982134035     -0.21053084138520128
0.2744512801245102        4.93682360327161E-6      0.04717026711745199      0.02177452486801044      0.22861877447160364      0.228599027177191        -0.05440282823310784     0.05442257552752054      -0.05442257552752054     0.05440282823310784      -0.228599027177191       -0.22861877447160364
0.2767776498609835        3.0697349518741743E-6    0.04756831623570312      0.021959414995738627     0.230548748159967        0.23053646922015994      -0.05486114925425128     0.05487342819405839      -0.05487342819405839     0.05486114925425128      -0.23053646922015994     -0.230548748159967
0.30062565801196506       -3.43800887634034E-6     0.051718692539518774     0.023836459366340903     0.25049503906616666      0.25050879110167223      -0.05981711617094547     0.05980336413543984      -0.05980336413543984     0.05981711617094547      -0.25050879110167223     -0.25049503906616666
0.33761194558424995       1.5212041136074272E-5    0.05810688305064872      0.02675853959559546      0.28138523161659934      0.2813243834520549       -0.06725606668729203     0.06731691485183636      -0.06731691485183636     0.06725606668729203      -0.2813243834520549      -0.28138523161659934
0.3635497219553972        -2.2275861043374173E-6   0.06262101234443722      0.02884134906050663      0.30322397810312873      0.3032328884475458       -0.07250209596349369     0.07249318561907632      -0.07249318561907632     0.07250209596349369      -0.3032328884475458      -0.30322397810312873
0.3685231445774141        -5.57153646445728E-6     0.06348657122763472      0.029240716051798253     0.3074114348171675       0.307433720963025        -0.07350799254863993     0.07348570640278207      -0.07348570640278207     0.07350799254863993      -0.307433720963025       -0.3074114348171675
0.39573843381453144       -9.248432126302171E-5    0.06813650264238741      0.03136885234629983      0.32969994866983476      0.3300698859548866       -0.0791190671844888      0.07874912989943675      -0.07874912989943675     0.0791190671844888       -0.3300698859548866      -0.32969994866983476
0.4047970828575488        -1.2141336948962673E-4   0.0696842391515735       0.032077205641377254     0.3371187132812496       0.3376043667592078       -0.0809867216281906      0.08050106815023213      -0.08050106815023213     0.0809867216281906       -0.3376043667592078      -0.3371187132812496
0.4536440568287771        -2.4900778082492434E-5   0.07813792925602492      0.035938936734709735     0.3781197331507481       0.3782193362630772       -0.0907078423854008      0.09060823927307039      -0.09060823927307039     0.0907078423854008       -0.3782193362630772      -0.3781197331507481
0.4648909890982697        -3.0059987373839622E-6   0.08008950777789187      0.03684040982876991      0.3876241506512798       0.3876361746462285       -0.09291289601607075     0.09290087202112071      -0.09290087202112071     0.09291289601607075      -0.3876361746462285      -0.3876241506512798
0.47018779694551605       7.305474317671713E-6     0.08100861497809984      0.03726496379995825      0.39210031108276716      0.3920710891854957       -0.09395137878583125     0.0939806006831014       -0.0939806006831014      0.09395137878583125      -0.3920710891854957      -0.39210031108276716
0.5045009742868856        -3.3649029547288406E-6   0.08703416601000141      0.04002358378723582      0.421190103373037        0.42120356298485595      -0.10101489268697064     0.10100143307515129      -0.10100143307515129     0.10101489268697064      -0.42120356298485595     -0.421190103373037
0.527248499079305         3.897028549318827E-5     0.09101437509579542      0.04181342160634641      0.44037475228375705      0.44021887114178504      -0.10571149829101459     0.10586737943298694      -0.10586737943298694     0.10571149829101459      -0.44021887114178504     -0.44037475228375705
0.5520141340102753        2.6241904499176277E-5    0.09531249958465249      0.04372476845418026      0.4608890563796757       0.46078408876167987      -0.11098594112823837     0.11109090874623465      -0.11109090874623465     0.11098594112823837      -0.46078408876167987     -0.4608890563796757
0.5767087065580934        7.574478618247631E-5     0.09969662422096841      0.045660208287875745     0.48188219538677207      0.4815792162420435       -0.11629754993903757     0.11660052908376711      -0.11660052908376711     0.11629754993903757      -0.4815792162420435      -0.48188219538677207
0.5925029478705559        1.0740601285300338E-4    0.10250063803071563      0.04689808368417778      0.49530906085456294      0.49487943680315255      -0.11969476732973008     0.1201243913811418       -0.1201243913811418      0.11969476732973008      -0.49487943680315255     -0.49530906085456294
0.606662455645589         5.03554823573951E-5      0.10499890027053588      0.04801011506445487      0.5071378720341408       0.5069364501047128       -0.12285552958907378     0.123056951518503        -0.123056951518503       0.12285552958907378      -0.5069364501047128      -0.5071378720341408
0.6442023145331346        3.822596524230711E-5     0.11159646405262266      0.05097341421574604      0.5387595009513358       0.5386065970903677       -0.13081928336440002     0.1309721872253688       -0.1309721872253688      0.13081928336440002      -0.5386065970903677      -0.5387595009513358
0.6645945459437574        3.16370241210675E-5      0.11518036264408205      0.05258312410338975      0.5559368583940465       0.5558103102975631       -0.135145317470446       0.1352718655669298       -0.1352718655669298      0.135145317470446        -0.5558103102975631      -0.5559368583940465
0.6774666152993244        3.86391382052151E-5      0.11743821217244285      0.053604828946833286     0.5668112305810714       0.5666566740282515       -0.1378180424535861      0.13797259900640643      -0.13797259900640643     0.1378180424535861       -0.5666566740282515      -0.5668112305810714
0.685875340467955         2.9137585065748496E-5    0.11897698634744028      0.05426031916283424      0.5740305108637885       0.5739139605235265       -0.13983140722085344     0.13994795756111594      -0.13994795756111594     0.13983140722085344      -0.5739139605235265      -0.5740305108637885
0.7129869692249678        -3.4852637754601446E-5   0.12377290514895697      0.0564076259823109       0.5968795141006044       0.5970189246516237       -0.14575791679313743     0.14561850624211858      -0.14561850624211858     0.14575791679313743      -0.5970189246516237      -0.5968795141006044
0.718622152019188         -4.36493289661063E-5     0.12477579965683498      0.05684833644629035      0.6016334460977332       0.6018080434135984       -0.1470213518432766      0.14684675452741175      -0.14684675452741175     0.1470213518432766       -0.6018080434135984      -0.6016334460977332
0.7352804377871159        -6.965341816155424E-5    0.12774047780790634      0.05815113018306427      0.615686647319652        0.6159652609922989       -0.15075621952778587     0.1504776058551392       -0.1504776058551392      0.15075621952778587      -0.6159652609922989      -0.615686647319652
0.747776498201089         -7.681065004767635E-5    0.1299022435280256       0.05913825422421798      0.6261061261808524       0.6264133687810438       -0.15330733498730093     0.15300009238710982      -0.15300009238710982     0.15330733498730093      -0.6264133687810438      -0.6261061261808524
0.7594029938028082        -1.6294537937969807E-5   0.13195872643992484      0.06005778795052402      0.6360747420459936       0.6361399201977462       -0.15567761659355506     0.15561243844180278      -0.15561243844180278     0.15567761659355506      -0.6361399201977462      -0.6360747420459936
0.7660624358064677        1.8367973680924986E-5    0.1331366418800068       0.06058447989025505      0.6417845811484013       0.6417111092536782       -0.15703527013163887     0.15710874202636216      -0.15710874202636216     0.15703527013163887      -0.6417111092536782      -0.6417845811484013
0.7908847499629673        -3.370129853670287E-5    0.13751888434096         0.06252793741231301      0.6626010000750574       0.662735805269205        -0.16251230597070188     0.1623775007765546       -0.1623775007765546      0.16251230597070188      -0.662735805269205       -0.6626010000750574
0.7955598441599933        -3.544493695138186E-5    0.13835280968080277      0.06289329922558876      0.6665607360708594       0.6667025158186656       -0.16355612201395656     0.1634143422661506       -0.1634143422661506      0.16355612201395656      -0.6667025158186656      -0.6665607360708594
0.8162629179819147        -4.316642304265112E-5    0.14204574444214257      0.06451125862344866      0.6840959349741359       0.6842686006663072       -0.16817853167871888     0.16800586598654782      -0.16800586598654782     0.16817853167871888      -0.6842686006663072      -0.6840959349741359
0.8780785451089693        4.329781438586872E-6     0.15323981003974768      0.0693361086831386       0.7370725244146736       0.73705520528892         -0.1823663358238121      0.1823836549495658       -0.1823836549495658      0.1823663358238121       -0.73705520528892        -0.7370725244146736
0.8857047223130448        3.954346225754199E-6     0.15461383837725678      0.06993712064874125      0.7435979064191859       0.7435820890342837       -0.18408512384435444     0.18410094122925683      -0.18410094122925683     0.18408512384435444      -0.7435820890342837      -0.7435979064191859
0.8937063005141207        3.5604300952411056E-6    0.15605550369644153      0.0705677176193941       0.7504445024270905       0.7504302607067104       -0.1858885197515584      0.18590276147193868      -0.18590276147193868     0.1858885197515584       -0.7504302607067104      -0.7504445024270905
0.8971098820986901        -8.335286908676037E-6    0.156666407650871        0.07083416118401586      0.7533191971148582       0.7533525382624935       -0.18667924879036754     0.18664590764273217      -0.18664590764273217     0.18667924879036754      -0.7533525382624935      -0.7533191971148582
0.9005427704755201        -9.189265100207977E-6    0.15729751044471507      0.07110259137075753      0.756284518286974        0.7563212753473756       -0.18750054438131622     0.1874637873209147       -0.1874637873209147      0.18750054438131622      -0.7563212753473756      -0.756284518286974
0.9203788160102835        -1.5006744571728408E-5   0.160883182241913        0.07264340776202463      0.773193164284693        0.7732531912629808       -0.19210592916678462     0.192045902188497        -0.192045902188497       0.19210592916678462      -0.7732531912629808      -0.773193164284693
0.9416969592693254        -2.1258890976777077E-5   0.16473676610864732      0.07429934994603232      0.7913651803281168       0.7914502158920249       -0.19705541632376689     0.19697038075985907      -0.19697038075985907     0.19705541632376689      -0.7914502158920249      -0.7913651803281168
0.9456736862052122        -1.3817080228812478E-5   0.16546606516404         0.07460742153238903      0.7948002474612175       0.7948555157821338       -0.19799614352302222     0.19794087520210624      -0.19794087520210624     0.19799614352302222      -0.7948555157821338      -0.7948002474612175
0.9540082337082667        1.7796972687734655E-6    0.16699455271651714      0.07525308750649969      0.8019995675700866       0.8019924487810125       -0.1999677487290158      0.19997486751809013      -0.19997486751809013     0.1999677487290158       -0.8019924487810125      -0.8019995675700866
0.9915251148822458        -9.042119164580394E-5    0.17377345484551357      0.07815873788995445      0.8337744737130659       0.8341361584796502       -0.2088662553600152      0.20850457059343125      -0.20850457059343125     0.2088662553600152       -0.8341361584796502      -0.8337744737130659
0.9927661357281278        -8.779450686994706E-5    0.1740025724877461       0.07825473763901421      0.8348510790055542       0.835202257033035        -0.20916435592092192     0.2088131778934414       -0.2088131778934414      0.20916435592092192      -0.835202257033035       -0.8348510790055542
0.9970131298536778        -7.880552425152995E-5    0.17478665382195577      0.0785832658596835       0.8385354138560974       0.8388506359531044       -0.21018450907563707     0.20986928697863022      -0.20986928697863022     0.21018450907563707      -0.8388506359531044      -0.8385354138560974
1.0219245085176427        2.0261630266275518E-5    0.17940908882665216      0.08052709140466426      0.8603761553591451       0.8602951088380809       -0.2160783776007676      0.21615942412183192      -0.21615942412183192     0.2160783776007676       -0.8602951088380809      -0.8603761553591451
1.0562996784341296        5.961814923971802E-5     0.1857649868203533       0.08320428628796031      0.8902313419113796       0.8899928693144216       -0.22435857901073983     0.22459705160769794      -0.22459705160769794     0.22435857901073983      -0.8899928693144216      -0.8902313419113796
1.075492678865244         3.014364975239116E-5     0.18935252420867446      0.08469254986747805      0.9068880593954394       0.9067674847964307       -0.229227085856607       0.22934766045561578      -0.22934766045561578     0.229227085856607        -0.9067674847964307      -0.9068880593954394
1.1010242509439114        -3.239793699875049E-5    0.19410344073516586      0.0866925191681868       0.9290156030042462       0.929145194752242        -0.23560504140674848     0.23547544965875267      -0.23547544965875267     0.23560504140674848      -0.929145194752242       -0.9290156030042462
1.109406887618828         -1.8096201508287918E-5   0.19565186229673942      0.0873437430409919       0.9362943666511683       0.9363667514572023       -0.23761680712926775     0.23754442232323378      -0.23754442232323378     0.23761680712926775      -0.9363667514572023      -0.9362943666511683
1.1299150480275333        1.6893062244376783E-5    0.19944008299585075      0.08893696533648147      0.954101896457966        0.954034324208989        -0.24253860151713813     0.24260617376611482      -0.24260617376611482     0.24253860151713813      -0.954034324208989       -0.954101896457966
1.1375529407981424        3.373516475234546E-5     0.20086111343902924      0.08954237990657735      0.960820330272901        0.9606853896138923       -0.24434635036127422     0.24448129102028276      -0.24448129102028276     0.24434635036127422      -0.9606853896138923      -0.960820330272901
1.1451934522900096        5.058304172888238E-5     0.20228263109546696      0.09014800204858509      0.9675410675641981       0.9673387353972831       -0.24615471900860325     0.246357051175518        -0.246357051175518       0.24615471900860325      -0.9673387353972831      -0.9675410675641981
1.1766402218287975        1.891417324468111E-5     0.20809853479393697      0.0925273845010527       0.9944429707325102       0.994367314039532        -0.2541482380311113      0.25422389472408924      -0.25422389472408924     0.2541482380311113       -0.994367314039532       -0.9944429707325102
1.1791936878482279        1.6319531305917872E-5    0.208587663669975        0.09271634691111429      0.996661017716993        0.9965957395917698       -0.25486496430285654     0.25493024242807943      -0.25493024242807943     0.25486496430285654      -0.9965957395917698      -0.996661017716993
1.1847683993944558        4.261779156992105E-6     0.20965933968127665      0.09314098796157569      1.0015504944484457       1.0015334473318183       -0.2564055436392137      0.2564225907558409       -0.2564225907558409      0.2564055436392137       -1.0015334473318183      -1.0015504944484457
1.243486652573631         -1.2274212724809716E-4   0.22094726782533208      0.097613718165551        1.053051191883703        1.0535421603926962       -0.27263241506828895     0.27214144655929573      -0.27214144655929573     0.27263241506828895      -1.0535421603926962      -1.053051191883703
1.2558956496833034        -1.193593269764363E-4    0.2232467013242614       0.09853220727408854      1.0636302144151843       1.0641076517230907       -0.2758499935303833      0.2753725562224767       -0.2753725562224767      0.2758499935303833       -1.0641076517230907      -1.0636302144151843
1.2650988004105523        -9.297822715512334E-5    0.22495336180324926      0.09924845671826674      1.0716679558285036       1.0720398687371246       -0.27805221499099153     0.2776803020823702       -0.2776803020823702      0.27805221499099153      -1.0720398687371246      -1.0716679558285036
1.2777452460053724        3.864015599849846E-5     0.22741166178816757      0.10022932778715762      1.0832295768251292       1.083075016201136        -0.2812403939038757      0.2813949545278689       -0.2813949545278689      0.2812403939038757       -1.083075016201136       -1.0832295768251292
1.2852219819725812        3.4096084241804023E-5    0.22874443633767116      0.10077226161430272      1.0893905476387071       1.0892541633017405       -0.28307607038731947     0.2832124547242859       -0.2832124547242859      0.28307607038731947      -1.0892541633017405      -1.0893905476387071
1.3274200438315888        -1.6096624008610835E-4   0.23674318360818444      0.10392310384943748      1.1256000337421301       1.1262438987024754       -0.294859067906976       0.29421520294663084      -0.29421520294663084     0.294859067906976        -1.1262438987024754      -1.1256000337421301
1.3334481057805718        -1.8210081174079864E-4   0.23797759005232968      0.1044125697677328       1.1312188476044378       1.1319472508514017       -0.2966466927095399      0.2959182894625759       -0.2959182894625759      0.2966466927095399       -1.1319472508514017      -1.1312188476044378
1.339870786667125         -1.4393265011062358E-4   0.2392545348701089       0.10490624753445052      1.1371007294479065       1.1376764600483498       -0.2984264797727462      0.297850749172303        -0.297850749172303       0.2984264797727462       -1.1376764600483498      -1.1371007294479065
1.376276724424026         7.241745993651809E-5     0.24649269201604404      0.10770458087290427      1.1704412344596213       1.170151564619876        -0.30851491763664235     0.30880458747638784      -0.30880458747638784     0.30851491763664235      -1.170151564619876       -1.1704412344596213
1.4330351011925955        -6.786357839052106E-5    0.2578642045846617       0.11197786576594171      1.2213683496609702       1.2216398039745324       -0.3258168778469997      0.32554542353343696      -0.32554542353343696     0.3258168778469997       -1.2216398039745324      -1.2213683496609702
1.4502682522623411        -1.030499862662235E-4    0.26125553215424996      0.11326677694754907      1.2366276042804127       1.237039804225478        -0.33090558864508646     0.33049338870002076      -0.33049338870002076     0.33090558864508646      -1.237039804225478       -1.2366276042804127
1.4530783209687572        -1.0878754541965866E-4   0.26180852814656363      0.11347694913034524      1.2391158058702316       1.2395509560519107       -0.3317353630091498      0.33130021282747035      -0.33130021282747035     0.3317353630091498       -1.2395509560519107      -1.2391158058702316
1.4595905066813835        -9.392073462947292E-5    0.26308164980920645      0.11397627999658834      1.2449622279447128       1.2453379108832312       -0.3335276709105254      0.3331519879720067       -0.3331519879720067      0.3335276709105254       -1.2453379108832312      -1.2449622279447128
1.4868421993995657        2.6041757432757008E-5    0.26853567804393286      0.11603238909977895      1.269788674045779        1.2696845070160485       -0.3414253942178178      0.341529561247548        -0.341529561247548       0.3414253942178178       -1.2696845070160485      -1.269788674045779
1.4907488065344832        1.663305691053862E-5     0.2693218270016323       0.11632041491861432      1.2732804067931747       1.273213874565533        -0.34265055521661925     0.3427170874442606       -0.3427170874442606      0.34265055521661925      -1.273213874565533       -1.2732804067931747
1.5188058780639087        -5.093979452657068E-5    0.27496791240955815      0.11838900301111921      1.2983578696840974       1.298561628862204        -0.3514496047732512      0.35124584559514416      -0.35124584559514416     0.3514496047732512       -1.298561628862204       -1.2983578696840974
1.523906178479485         -4.2070230060555196E-5   0.2759851971638635       0.11877933215827907      1.302988779664585        1.3031570605848275       -0.3529224033185959      0.3527541223983528       -0.3527541223983528      0.3529224033185959       -1.3031570605848275      -1.302988779664585
1.5384960218906294        -1.6698086041562867E-5   0.27889522678183093      0.11989590190355828      1.3162358917876422       1.3163026841318088       -0.35713546890334336     0.35706867655917635      -0.35706867655917635     0.35713546890334336      -1.3163026841318088      -1.3162358917876422
1.556482675311458         2.8932046887058865E-5    0.2825544009625741       0.12122413227997414      1.3326175961013922       1.3325018679138443       -0.36270880967405217     0.3628245378615996       -0.3628245378615996      0.36270880967405217      -1.3325018679138443      -1.3326175961013922
1.5692457927666523        6.131065186921678E-5     0.28515090787051056      0.12216662891373492      1.3442418605702091       1.3439966179627323       -0.36666358665285403     0.36690882926033014      -0.36690882926033014     0.36666358665285403      -1.3439966179627323      -1.3442418605702091
1.6495900765922533        -7.539232276894555E-5    0.3020598997068542       0.12802327490175833      1.4181220140820572       1.4184235833731333       -0.3942373841590676      0.3939358148679911       -0.3939358148679911      0.3942373841590676       -1.4184235833731333      -1.4181220140820572
1.6804083021631664        -3.578392908928517E-5    0.30841243571516375      0.13030271657995274      1.4463766056071228       1.44651974132348         -0.4040980086838592      0.4039548729675013       -0.4039548729675013      0.4040980086838592       -1.44651974132348        -1.4463766056071228
1.6982276587277725        -1.2882023581945725E-5   0.312085525327708        0.13162070888092114      1.4627136474596438       1.4627651755539717       -0.4097995045066038      0.40974797641227517      -0.40974797641227517     0.4097995045066038       -1.4627651755539717      -1.4627136474596438
1.7085492299092389        -3.797694365836586E-5    0.31419919694293896      0.13238495366044303      1.4720614515832713       1.4722133593579048       -0.4131337300743617      0.41298182229972746      -0.41298182229972746     0.4131337300743617       -1.4722133593579048      -1.4720614515832713
1.719268364404422         2.0497379594618288E-7    0.3165021199258069       0.13314294609702626      1.482078554113117        1.4820777342179332       -0.41693416544172424     0.4169349853369072       -0.4169349853369072      0.41693416544172424      -1.4820777342179332      -1.482078554113117
1.7909969319669           2.5570454300258305E-4    0.33191244683625504      0.1382151570785882       1.5491093779091225       1.548086559737112        -0.4423653031084078      0.4433881212804173       -0.4433881212804173      0.4423653031084078       -1.548086559737112       -1.5491093779091225
1.8116454914293343        2.413219375414315E-4     0.33642983450711933      0.13966655364472869      1.568438361975355        1.5674730742251892       -0.4501406450673612      0.4511059328175261       -0.4511059328175261      0.4501406450673612       -1.5674730742251892      -1.568438361975355
1.8541877389536316        6.44280641572759E-5      0.3456627225876465       0.1427006096398522       1.607919462450662        1.6076617501940331       -0.4660568730752168      0.4663145853318451       -0.4663145853318451      0.4660568730752168       -1.6076617501940331      -1.607919462450662
1.8674604968707393        3.6690596263286627E-4    0.34888709958215713      0.14358192474458578      1.6217228096500795       1.620255185799548        -0.47159978784286327     0.47306741169339395      -0.47306741169339395     0.47159978784286327      -1.620255185799548       -1.6217228096500795
1.9040846783330534        6.581006923413331E-4     0.3572277669668975       0.1461203100000647       1.6574807422856328       1.6548483395162674       -0.4858858595157516      0.48851826228511597      -0.48851826228511597     0.4858858595157516       -1.6548483395162674      -1.6574807422856328
1.9341982621992357        9.437865166183131E-4     0.36442735618712735      0.14804829664111155      1.687362828159064        1.683587682092591        -0.49920130896369974     0.5029764550301723       -0.5029764550301723      0.49920130896369974      -1.683587682092591       -1.687362828159064
1.9462888452971527        9.159860972669579E-4     0.36717176036725485      0.14890572516987843      1.6989701539758113       1.6953062095867435       -0.5040604082277174      0.5077243526167845       -0.5077243526167845      0.5040604082277174       -1.6953062095867435      -1.6989701539758113
1.985351796606268         8.261669033785967E-4     0.37603853924736685      0.15167595457891636      1.7364717698645225       1.7331671022510085       -0.5197594656196786      0.5230641332331923       -0.5230641332331923      0.5197594656196786       -1.7331671022510085      -1.7364717698645225