% Model:              Prism_potential.mph
% Version:            COMSOL 6.2.0.339
% Date:               May 6 2024, 20:12
% Dimension:          1
% Nodes:              818
% Expressions:        11
% Description:        Line graph
% Arc length (m)          Magnetic scalar potential Magnetic scalar potential Magnetic scalar potential Magnetic scalar potential Magnetic scalar potential Magnetic scalar potential Magnetic scalar potential Magnetic scalar potential Magnetic scalar potential Magnetic scalar potential Magnetic scalar potential
0                         -2.1477070312685975E-6   1.7213087679800103E-5    1.480599881648724E-5     1.065678442421084E-4     1.151586723679848E-4     3.2893181635729923E-6    -1.1880146289583515E-5   1.1880146289583515E-5    -3.2893181635729923E-6   -1.151586723679848E-4    -1.065678442421084E-4
0.0020824777562566442     7.963358322343378E-4     -2.0829880400990492E-4   -1.41726038660918E-4     4.0087109779458376E-4    -0.0027844722311419585   0.001650663921854279     0.0015346794070821258    -0.0015346794070821258   -0.001650663921854279    0.0027844722311419585    -4.0087109779458376E-4
0.004921840937805533      0.0018851164653800325    -5.1513526066592E-4      -3.5491192608083156E-4   8.051794444382686E-4     -0.006735286417081057    0.003895991008434062     0.0036444748530851294    -0.0036444748530851294   -0.003895991008434062    0.006735286417081057     -8.051794444382686E-4
0.01139132398047961       0.004365803896340276     -0.0012138576736935398   -8.405327137207942E-4    0.001727903916716015     -0.01573531166864429     0.00901104995887756      0.008452165626482632     -0.008452165626482632    -0.00901104995887756     0.01573531166864429      -0.001727903916716015
0.019073361707647556      0.007311935597202741     -0.002044165528742242    -0.0014180681248417287   0.0028191021088111202    -0.02642864027999909     0.01508409528126485      0.01416364710754522      -0.01416364710754522     -0.01508409528126485     0.02642864027999909      -0.0028191021088111202
0.09497881030648221       0.03642163136547614      -0.010255399685175578    -0.007117440801570777    0.01360730046914175      -0.13207922499276237     0.07513969858019542      0.07054682688170841      -0.07054682688170841     -0.07513969858019542     0.13207922499276237      -0.01360730046914175
0.10510643786776185       0.040301780679666915     -0.01135135228029375     -0.007875749566306031    0.015046506253227766     -0.14616061646543943     0.08315461993499046      0.07805250278367647      -0.07805250278367647     -0.08315461993499046     0.14616061646543943      -0.015046506253227766
0.1457914838175885        0.055894221114657056     -0.01573100555164239     -0.010919857842078867    0.0209159942060708       -0.20266089025255707     0.11530202751592533      0.10827485694270221      -0.10827485694270221     -0.11530202751592533     0.20266089025255707      -0.0209159942060708
0.15861525670791893       0.0608088994756181       -0.017111455728826153    -0.01187934927856949     0.022766034650479106     -0.2204695632519929      0.1254347690234362       0.11780082887903551      -0.11780082887903551     -0.1254347690234362      0.2204695632519929       -0.022766034650479106
0.1800941517821676        0.06904046665318216      -0.0194201129872144      -0.013495186720283714    0.025839847463585586     -0.2503220191491427      0.1423605253868722       0.1338013412258558       -0.1338013412258558      -0.1423605253868722      0.2503220191491427       -0.025839847463585586
0.19402636101360707       0.07438021299830941      -0.02092116021194464     -0.014540397169152758    0.027835356684173182     -0.26968549530906416     0.15336231795584127      0.14415853403739579      -0.14415853403739579     -0.15336231795584127     0.26968549530906416      -0.027835356684173182
0.20021464867210115       0.07674871956982442      -0.021582340892724008    -0.015004439001673631    0.0287326604547816       -0.27826221782451577     0.15822670581112588      0.14876817246817117      -0.14876817246817117     -0.15822670581112588     0.27826221782451577      -0.0287326604547816
0.2119760923323139        0.08125099925242026      -0.022845716569036438    -0.01588089009516592     0.030441288417066847     -0.2945627085926138      0.16751558783128567      0.15748840917839468      -0.15748840917839468     -0.16751558783128567     0.2945627085926138       -0.030441288417066847
0.26682931968812906       0.10225410400341457      -0.028689073000555648    -0.01996334628886951     0.03858760384968342      -0.37042881216397433     0.21072204185301752      0.19829437416064005      -0.19829437416064005     -0.21072204185301752     0.37042881216397433      -0.03858760384968342
0.2717354643178025        0.10413188313664892      -0.029212606007080495    -0.020329785882785823    0.039306804720912344     -0.3772207278256829      0.21458244076339553      0.20194509178319953      -0.20194509178319953     -0.21458244076339553     0.3772207278256829       -0.039306804720912344
0.273253409505675         0.10471194379313893      -0.029374718933320044    -0.02044309729038564     0.039527341624774406     -0.3793204335477808      0.21577565522469488      0.2030721199478601       -0.2030721199478601      -0.21577565522469488     0.3793204335477808       -0.039527341624774406
0.27613146210927875       0.10581103758622794      -0.029676946575944267    -0.02065528832120554     0.03997008215980017      -0.38327406818511106     0.21803176161546597      0.20521238872944503      -0.20521238872944503     -0.21803176161546597     0.38327406818511106      -0.03997008215980017
0.3094707732359364        0.11853402632161408      -0.03320536531536773     -0.02314547449205854     0.044870058728890064     -0.42926604655756573     0.24410225062109672      0.23003385466535903      -0.23003385466535903     -0.24410225062109672     0.42926604655756573      -0.044870058728890064
0.3411149418566876        0.13061011269823264      -0.03655438105029866     -0.02550904675628951     0.04952089522041042      -0.47291955557251947     0.2688471815222027       0.25359326927072723      -0.25359326927072723     -0.2688471815222027      0.47291955557251947      -0.04952089522041042
0.3669025328424055        0.1404485337163975       -0.03927568443494867     -0.027430025446648132    0.05334991234135568      -0.5084442225242337      0.289004018951048        0.2727901159145415       -0.2727901159145415      -0.289004018951048       0.5084442225242337       -0.05334991234135568
0.3921214624278567        0.15007983274462028      -0.04194539165764938     -0.02933703175193096     0.05697536350856776      -0.5433439674699126      0.3086477134544644       0.29167161752401616      -0.29167161752401616     -0.3086477134544644      0.5433439674699126       -0.05697536350856776
0.401705812752452         0.15372573127663924      -0.04297771839872214     -0.030027832802169335    0.05840697614843395      -0.5564959489581225      0.31627328654076714      0.2986296385657894       -0.2986296385657894      -0.31627328654076714     0.5564959489581225       -0.05840697614843395
0.41659734692377975       0.15939051600208415      -0.04452610494243041     -0.031118858436542367    0.06072728343070685      -0.576834780577629       0.32788391308528964      0.3096781509230465       -0.3096781509230465      -0.32788391308528964     0.576834780577629        -0.06072728343070685
0.4436942007675633        0.16974717664896175      -0.04733075604126023     -0.03310485982152699     0.06508264588803407      -0.6139060607078125      0.3490671821355959       0.32992152446025075      -0.32992152446025075     -0.3490671821355959      0.6139060607078125       -0.06508264588803407
0.44942837256345847       0.17193882855524412      -0.04792426963958987     -0.033525132713503346    0.06600431733770445      -0.6217509968832715      0.35354993517524413      0.33420537904573194      -0.33420537904573194     -0.35354993517524413     0.6217509968832715       -0.06600431733770445
0.45212384844475795       0.17296990797073275      -0.04820058062452645     -0.0337214327837826      0.06645234293275501      -0.6254272889501755      0.3556558266799142       0.3362238052030165       -0.3362238052030165      -0.3556558266799142      0.6254272889501755       -0.06645234293275501
0.45370650275048485       0.1735753084077357       -0.048362817197690935    -0.03383669078093158     0.06671540209867151      -0.6275858315322709      0.3568923052848176       0.3374089283461249       -0.3374089283461249      -0.3568923052848176      0.6275858315322709       -0.06671540209867151
0.4758510140150892        0.18200391603780208      -0.05062317870742192     -0.03545137483656757     0.07033279660706734      -0.6576828675441404      0.37407186885159927      0.3539437952996087       -0.3539437952996087      -0.37407186885159927     0.6576828675441404       -0.07033279660706734
0.48767322979354344       0.18649717256395656      -0.05178313022453795     -0.036301533036101626    0.07243882230989201      -0.6735498679459337      0.3831376036571201       0.3628510865987058       -0.3628510865987058      -0.3831376036571201      0.6735498679459337       -0.07243882230989201
0.5120598104789827        0.19574071158850692      -0.05424775629094708     -0.03808805528839879     0.07638593315057665      -0.7065769132034505      0.4018724708962595       0.3810903754577677       -0.3810903754577677      -0.4018724708962595      0.7065769132034505       -0.07638593315057665
0.5489998203388453        0.2097413543483097       -0.05809905599221331     -0.04081406082492138     0.08192929742029322      -0.7570361199729452      0.43052363337357347      0.4084417840196649       -0.4084417840196649      -0.43052363337357347     0.7570361199729452       -0.08192929742029322
0.5786963462055192        0.22097044700076302      -0.06108447166247971     -0.042978058003139516    0.08677524700152806      -0.7971065410015237      0.45328207697640666      0.43059971102664496      -0.43059971102664496     -0.45328207697640666     0.7971065410015237       -0.08677524700152806
0.5868370490867449        0.22405441943432713      -0.061913271010482246    -0.04357419144509181     0.08807226005683949      -0.8081454176804687      0.4595518861197334       0.4366657916175747       -0.4366657916175747      -0.4595518861197334      0.8081454176804687       -0.08807226005683949
0.613139279475889         0.23401859017546106      -0.06459108295320892     -0.04550027072370834     0.09226284859646122      -0.8438115121053826      0.47980934631571515      0.45626501438612865      -0.45626501438612865     -0.47980934631571515     0.8438115121053826       -0.09226284859646122
0.6420296601698161        0.24493087961936788      -0.06742970397645694     -0.04758495587035536     0.09723282382794271      -0.8824906946495285      0.5018110476866848       0.47791247079078636      -0.47791247079078636     -0.5018110476866848      0.8824906946495285       -0.09723282382794271
0.6825261211092768        0.26022694331291935      -0.07140867907573828     -0.050507117800537564    0.10419937819647285      -0.9367083950552042      0.5326514526509031       0.5082563206007741       -0.5082563206007741      -0.5326514526509031      0.9367083950552042       -0.10419937819647285
0.6905275632884048        0.26323755106389995      -0.0721989602172972      -0.05108331684656435     0.1055449540896502       -0.9474052501659495      0.5387387153934339       0.5142114888621657       -0.5142114888621657      -0.5387387153934339      0.9474052501659495       -0.1055449540896502
0.6950052903363257        0.26491546187419546      -0.07262467757028632     -0.05140068384419829     0.10635415566073805      -0.9533076918360435      0.5421022210824564       0.5175596264143251       -0.5175596264143251      -0.5421022210824564      0.9533076918360435       -0.10635415566073805
0.7058678840196642        0.269010412453346        -0.07367697387789268     -0.052170492771594384    0.10830793218663556      -0.967733717626748       0.5503697754539921       0.5256718743593913       -0.5256718743593913      -0.5503697754539921      0.967733717626748        -0.10830793218663556
0.7748518773449049        0.29489939944882115      -0.08031855697091661     -0.057093326154424376    0.12046982336719422      -1.05912777442809        0.6023811651926944       0.5772164326025899       -0.5772164326025899      -0.6023811651926944      1.05912777442809         -0.12046982336719422
0.7824536673702386        0.29775227347976224      -0.0810504357398208      -0.057635804835377794    0.12181002039855013      -1.0691990735204984      0.6081126348374755       0.5828964590815732       -0.5828964590815732      -0.6081126348374755      1.0691990735204984       -0.12181002039855013
0.7830545900339148        0.29798045870904893      -0.0811082886729067      -0.05767803153261384     0.12192392526892161      -1.0699979095672736      0.6085736573063623       0.5833481775298329       -0.5833481775298329      -0.6085736573063623      1.0699979095672736       -0.12192392526892161
0.7841148574231103        0.2983741936568954       -0.08120323524410651     -0.05775214727804167     0.12213009246930379      -1.0713666821582772      0.6093495039339433       0.5841472706936378       -0.5841472706936378      -0.6093495039339433      1.0713666821582772       -0.12213009246930379
0.8089163005368769        0.3076387267660724       -0.08347525456296177     -0.05950402748951282     0.12683557988520747      -1.1037193271790817      0.6276871072629787       0.6028677998013107       -0.6028677998013107      -0.6276871072629787      1.1037193271790817       -0.12683557988520747
0.8289536279956464        0.31512363330194054      -0.08531084110023404     -0.06091938857575144     0.1306371890001725       -1.1298573442075894      0.6425022356015774       0.6179922976061846       -0.6179922976061846      -0.6425022356015774      1.1298573442075894       -0.1306371890001725
0.868117651020388         0.329825509102362        -0.08896639872194459     -0.06368705928046817     0.13800358491701684      -1.181298451492431       0.6718019772486852       0.6475000591607628       -0.6475000591607628      -0.6718019772486852      1.181298451492431        -0.13800358491701684
0.8683982669171386        0.3299308501716145       -0.08899259132170617     -0.06370689004188468     0.13805636621057088      -1.1816670344758864      0.6720119141408086       0.647711486545649        -0.647711486545649       -0.6720119141408086      1.1816670344758864       -0.13805636621057088
0.9100257806831816        0.3453848582907589       -0.09271823254388216     -0.06659439580039675     0.1462374357482835       -1.2353019974147514      0.7025468310115771       0.6789926021514582       -0.6789926021514582      -0.7025468310115771      1.2353019974147514       -0.1462374357482835
0.9101201457016888        0.3454198908360693       -0.09272667816484469     -0.06660094145997834     0.14625598133769036      -1.2354235820065864      0.7026160503267591       0.6790635130175178       -0.6790635130175178      -0.7026160503267591      1.2354235820065864       -0.14625598133769036
0.9477100367901405        0.359454327679516        -0.09603378624550793     -0.06920692516926519     0.15397959594544672      -1.283837714772617       0.7301823134184949       0.707634997299569        -0.707634997299569       -0.7301823134184949      1.283837714772617        -0.15397959594544672
0.9539991775705813        0.36181459038136565      -0.09660008868386033     -0.0696425021470012      0.1552589061231448       -1.2919994554023175      0.7348594382263074       0.7123989232991551       -0.7123989232991551      -0.7348594382263074      1.2919994554023175       -0.1552589061231448
0.9702364898782763        0.36789278985216617      -0.09795367574170387     -0.07074437630033292     0.15894704727788828      -1.3126241121307762      0.7466691017281122       0.7249020576805525       -0.7249020576805525      -0.7466691017281122      1.3126241121307762       -0.15894704727788828
0.9760485239940828        0.3700550880287316       -0.09844067236348773     -0.07113937289211059     0.16023066739855693      -1.3199896847163692      0.7508747015794841       0.7293456505354424       -0.7293456505354424      -0.7508747015794841      1.3199896847163692       -0.16023066739855693
0.9775910862694949        0.3706303758496906       -0.09857630797916152     -0.0712385020713806      0.16057781947637334      -1.3219436839223886      0.7520356673513433       0.730485836047419        -0.730485836047419       -0.7520356673513433      1.3219436839223886       -0.16057781947637334
0.9796659874509841        0.3713778938189088       -0.09876055071064499     -0.07137857318848882     0.1609598427519265       -1.3245517325237084      0.7535231470157973       0.7319884282598378       -0.7319884282598378      -0.7535231470157973      1.3245517325237084       -0.1609598427519265
1.0078110321549159        0.3815176184710194       -0.10125971547099041     -0.07327857107171856     0.1661418062421925       -1.3599286676418845      0.773700099068136        0.7523703748159418       -0.7523703748159418      -0.773700099068136       1.3599286676418845       -0.1661418062421925
1.026562389238428         0.38857513446340297      -0.10286005333203516     -0.07453205723394409     0.17044187999492333      -1.3838586578586876      0.7876021999871352       0.7666983378664767       -0.7666983378664767      -0.7876021999871352      1.3838586578586876       -0.17044187999492333
1.0396000882240246        0.39348218032066734      -0.10397275804000006     -0.07540359816791077     0.17343169384969048      -1.4004970274329778      0.7972682420896916       0.7766604791929773       -0.7766604791929773      -0.7972682420896916      1.4004970274329778       -0.17343169384969048
1.0403563377648615        0.39375964433689314      -0.10403053742032153     -0.0754553908979834      0.1736061128208871       -1.401432464526684       0.7977893373428172       0.7772492400047549       -0.7772492400047549      -0.7977893373428172      1.401432464526684        -0.1736061128208871
1.042640305893329         0.39459903123253315      -0.10421578522739038     -0.0756023798385155      0.1741411874288322       -1.4042549375012991      0.7994358987931753       0.7789602261369568       -0.7789602261369568      -0.7994358987931753      1.4042549375012991       -0.1741411874288322
1.0502699336328434        0.39740737542530236      -0.10479507304155591     -0.0761147288586784      0.17597061629122257      -1.413658885409986       0.8047410545405589       0.7848884471606504       -0.7848884471606504      -0.8047410545405589      1.413658885409986        -0.17597061629122257
1.058966729574728         0.4006085272000605       -0.10545538676634303     -0.07669874095356795     0.17805593028681937      -1.4243781785134222      0.8107882508848783       0.7916458579153636       -0.7916458579153636      -0.8107882508848783      1.4243781785134222       -0.17805593028681937
1.0664664455846344        0.40334889351081304      -0.10609816125561526     -0.07721870567236787     0.17952848056530796      -1.4338670934779434      0.8161174480990002       0.7972781259442514       -0.7972781259442514      -0.8161174480990002      1.4338670934779434       -0.17952848056530796
1.0912458498798243        0.41257165991757494      -0.10802114085154271     -0.07903500478718027     0.18493987813179982      -1.4653467615384992      0.8330667232410569       0.8172199164292425       -0.8172199164292425      -0.8330667232410569      1.4653467615384992       -0.18493987813179982
1.10466415153564          0.4174623556458114       -0.1092035476785726      -0.07981018475956586     0.1880733292176408       -1.4817760933656043      0.8432946152890772       0.8265548072941682       -0.8265548072941682      -0.8432946152890772      1.4817760933656043       -0.1880733292176408
1.1084902126856633        0.41887728544422953      -0.10953018751995199     -0.08005439803913754     0.18894641617205216      -1.4865627256048655      0.8461275412917648       0.8293816004851531       -0.8293816004851531      -0.8461275412917648      1.4865627256048655       -0.18894641617205216
1.1252009988774674        0.42505716297640983      -0.11095682665011392     -0.08112102916187762     0.19275972935496652      -1.507468922550672       0.8585006892556508       0.8417279626499883       -0.8417279626499883      -0.8585006892556508      1.507468922550672        -0.19275972935496652
1.1577097481349239        0.43690595537202714      -0.1134665399434859      -0.08323266101949588     0.2004816468356121       -1.5471421746524958      0.8812808864965282       0.8663429349915798       -0.8663429349915798      -0.8812808864965282      1.5471421746524958       -0.2004816468356121
1.1660701004685312        0.43995313748200676      -0.114111968877794       -0.083775714404563       0.20246751071237856      -1.5573450392156478      0.8871393239791432       0.8726732259488832       -0.8726732259488832      -0.8871393239791432      1.5573450392156478       -0.20246751071237856
1.1986901257734686        0.452005370787174        -0.11665447012980107     -0.08589358997519883     0.21047297128414855      -1.5975485118645472      0.9103997920629557       0.8976216910857396       -0.8976216910857396      -0.9103997920629557      1.5975485118645472       -0.21047297128414855
1.2108019095309104        0.45644385052507286      -0.11755644466131676     -0.08668270195580087     0.213487559242991        -1.6122878428573002      0.9188262272108922       0.9069491748893985       -0.9069491748893985      -0.9188262272108922      1.6122878428573002       -0.213487559242991
1.2768419492652594        0.48051638900201016      -0.1223488271835421      -0.09083508351959528     0.2306459623750119       -1.6914195936330283      0.9647389254762653       0.9573266305317748       -0.9573266305317748      -0.9647389254762653      1.6914195936330283       -0.2306459623750119
1.2855342109006562        0.48368107361864515      -0.1229926008017962      -0.09137424513841301     0.23288736427824863      -1.7018369301963314      0.9708429690890266       0.9638813253855534       -0.9638813253855534      -0.9708429690890266      1.7018369301963314       -0.23288736427824863
1.2881399670388394        0.4846297791122338       -0.12318559051238373     -0.09153587438482064     0.23355928914803292      -1.704959827300902       0.972672832222336        0.9658462842265988       -0.9658462842265988      -0.972672832222336       1.704959827300902        -0.23355928914803292
1.2985491977513695        0.4883922464613533       -0.1239208466672817      -0.09218077295394028     0.23629886110509948      -1.7172701247403137      0.9798239411087905       0.9737450447366226       -0.9737450447366226      -0.9798239411087905      1.7172701247403137       -0.23629886110509948
1.2986418585090465        0.48842574946170325      -0.12392738427174604     -0.09218663417467916     0.23632280940945083      -1.717380188437362       0.9798871150399279       0.9738158828068849       -0.9738158828068849      -0.9798871150399279      1.717380188437362        -0.23632280940945083
1.2987238373447019        0.48845514511445143      -0.12393296062345022     -0.09219172460892008     0.23634450992287098      -1.7174760705349346      0.979942273663573        0.9738783067942324       -0.9738783067942324      -0.979942273663573       1.7174760705349346       -0.23634450992287098
1.2987797099221887        0.4884754585923476       -0.12393662824686257     -0.09219509946581753     0.23636063458083648      -1.7175411997885537      0.9799804040620126       0.9739214303073775       -0.9739214303073775      -0.9799804040620126      1.7175411997885537       -0.23636063458083648
1.310805479627401         0.49284764291025795      -0.12472603150165956     -0.09292148893381695     0.23983123558026845      -1.731559336060763       0.9881874245902265       0.9832031470508047       -0.9832031470508047      -0.9881874245902265      1.731559336060763        -0.23983123558026845
1.3682392611689007        0.5137108911104835       -0.1285278706132684      -0.09638868606512141     0.2562834261206751       -1.7985601383212582      1.0274506498002864       1.0273929146416474       -1.0273929146416474      -1.0274506498002864      1.7985601383212582       -0.2562834261206751
1.4269495925499154        0.5350378555318411       -0.1324142111624898      -0.09993294672633347     0.27310129067087785      -1.8670501314564856      1.0675865576458172       1.0725648644815464       -1.0725648644815464      -1.0675865576458172      1.8670501314564856       -0.27310129067087785
1.4580354612170165        0.5461606370806054       -0.1342909861887535      -0.10174910887648313     0.2824518800890167       -1.902190668233404       1.0881977972215384       1.0964447511008826       -1.0964447511008826      -1.0881977972215384      1.902190668233404        -0.2824518800890167
1.501267446973465         0.5616294000300276       -0.13690106963446266     -0.10427489630251588     0.29545600594660254      -1.951061594173507       1.1168624237533793       1.1296551763667304       -1.1296551763667304      -1.1168624237533793      1.951061594173507        -0.29545600594660254
1.504252639489151         0.5627060257176152       -0.13707228807601662     -0.10444540008625616     0.29641358686215463      -1.9544105160083052      1.1188473153182552       1.1319767875522047       -1.1319767875522047      -1.1188473153182552      1.9544105160083052       -0.29641358686215463
1.5298173119067477        0.5719622039838145       -0.13849838486803107     -0.10586689236860694     0.30496168388910694      -1.9828871320461503      1.135951993097294        1.1518968228379634       -1.1518968228379634      -1.135951993097294       1.9828871320461503       -0.30496168388910694
1.5626514680085672        0.5838479049785008       -0.14032922118484362     -0.10769694304073069     0.3159203742395473       -2.0194712456744557      1.1578957013486095       1.1774959185653935       -1.1774959185653935      -1.1578957013486095      2.0194712456744557       -0.3159203742395473
1.6156146655446408        0.6027896903054415       -0.14320839104803687     -0.11061295384810642     0.3335023920743455       -2.07765636914742        1.1927527383625676       1.2184060228591977       -1.2184060228591977      -1.1927527383625676      2.07765636914742         -0.3335023920743455
1.6193326391667928        0.6041253884463632       -0.14341162643896457     -0.11082705099335238     0.3347076936024221       -2.08179386018303        1.1951774522362102       1.221324101549242        -1.221324101549242       -1.1951774522362102      2.08179386018303         -0.3347076936024221
1.62338744106061          0.605568302706769        -0.1436265584433173      -0.11103670648068897     0.3361101041608292       -2.0861631066662465      1.1978694548207336       1.2244037560063419       -1.2244037560063419      -1.1978694548207336      2.0861631066662465       -0.3361101041608292
1.6817030058842142        0.626193505948922        -0.1463380855083923      -0.1141178018974766      0.35690154778275945      -2.147872476012928       1.234930060833114        1.269843962962573        -1.269843962962573       -1.234930060833114       2.147872476012928        -0.35690154778275945
1.6888634664427653        0.6245234436269593       -0.1466785381439375      -0.11448542800092498     0.3510695608184051       -2.147024213689432       1.2311407896820308       1.2669529848258059       -1.2669529848258059      -1.2311407896820308      2.147024213689432        -0.3510695608184051
1.7138891064270794        0.6185479980334472       -0.14768715547380878     -0.11573230605450247     0.3311053054274571       -2.143086686706331       1.2172282382703101       1.2569637538634775       -1.2569637538634775      -1.2172282382703101      2.143086686706331        -0.3311053054274571
1.735985473285047         0.6132859540651381       -0.1486024938606606      -0.11684218069180043     0.31339570378109194      -2.1397481124794604      1.205010666945056        1.2481331493154961       -1.2481331493154961      -1.205010666945056       2.1397481124794604       -0.31339570378109194
1.7515321511045308        0.6095836575395102       -0.1492465124492214      -0.11762307211693829     0.30093548926360225      -2.1373991408944386      1.1964145639589312       1.241920066199109        -1.241920066199109       -1.1964145639589312      2.1373991408944386       -0.30093548926360225
1.769869831543684         0.6052378778348079       -0.15008622920531045     -0.11854880560943525     0.2860218456159427       -2.1349296657232886      1.1865392208478058       1.2344122904914254       -1.2344122904914254      -1.1865392208478058      2.1349296657232886       -0.2860218456159427
1.7771121665094984        0.6036638064598483       -0.15036890307002299     -0.11886935419738082     0.2807434869201036       -2.1339117389192896      1.182956905340242        1.2316983204991507       -1.2316983204991507      -1.182956905340242       2.1339117389192896       -0.2807434869201036
1.7820002513594846        0.6026014150519591       -0.1505596887547656      -0.11908570275124047     0.2771809528346586       -2.1332247073731776      1.180539085363253        1.229866574844583        -1.229866574844583       -1.180539085363253       2.1332247073731776       -0.2771809528346586
1.8228279092818354        0.5928270054691415       -0.15194967320144254     -0.12101024529872748     0.24576401013904442      -2.125544011737521       1.1574620493477004       1.213845972528865        -1.213845972528865       -1.1574620493477004      2.125544011737521        -0.24576401013904442
1.8259466823725683        0.592026421212335        -0.1520608336876799      -0.12116507578488506     0.24321003822208892      -2.1248956466272504      1.1555750403481688       1.2125306445011703       -1.2125306445011703      -1.1555750403481688      2.1248956466272504       -0.24321003822208892